
     Program PWSCF v.6.0 (svn rev. 13079) starts on 30May2017 at 10:41:48 

     This program is part of the open-source Quantum ESPRESSO suite
     for quantum simulation of materials; please cite
         "P. Giannozzi et al., J. Phys.:Condens. Matter 21 395502 (2009);
          URL http://www.quantum-espresso.org", 
     in publications or presentations arising from this work. More details at
     http://www.quantum-espresso.org/quote

     Parallel version (MPI), running on     4 processors
     R & G space division:  proc/nbgrp/npool/nimage =       4
     Waiting for input...
     Reading input from standard input
Warning: card &IONS ignored
Warning: card ION_DYNAMICS='BFGS', ignored
Warning: card / ignored
Warning: card &CELL ignored
Warning: card CELL_DYNAMICS='BFGS', ignored
Warning: card PRESS = 0.0, ignored
Warning: card CELL_FACTOR = 2.0, ignored
Warning: card / ignored

     Current dimensions of program PWSCF are:
     Max number of different atomic species (ntypx) = 10
     Max number of k-points (npk) =  40000
     Max angular momentum in pseudopotentials (lmaxx) =  3
               file Al.pbe-nl-kjpaw_psl.1.0.0.UPF: wavefunction(s)  3S 3P renormalized
               file Al.pbe-nl-kjpaw_psl.1.0.0.UPF: wavefunction(s)  3S 3P renormalized
               file Al.pbe-nl-kjpaw_psl.1.0.0.UPF: wavefunction(s)  3S 3P renormalized
               file Al.pbe-nl-kjpaw_psl.1.0.0.UPF: wavefunction(s)  3S 3P renormalized

     Subspace diagonalization in iterative solution of the eigenvalue problem:
     a serial algorithm will be used


     Parallelization info
     --------------------
     sticks:   dense  smooth     PW     G-vecs:    dense   smooth      PW
     Min         211     148     44                 4569     2694     458
     Max         212     149     45                 4570     2697     463
     Sum         845     593    177                18277    10779    1839



     bravais-lattice index     =            0
     lattice parameter (alat)  =       7.6300  a.u.
     unit-cell volume          =     380.8416 (a.u.)^3
     number of atoms/cell      =            4
     number of atomic types    =            4
     number of electrons       =        12.00
     number of Kohn-Sham states=           10
     kinetic-energy cutoff     =      35.0000  Ry
     charge density cutoff     =     200.0000  Ry
     convergence threshold     =      1.0E-06
     mixing beta               =       0.3000
     number of iterations used =           10  TF        mixing
     Exchange-correlation      =  SLA  PW   PBX  PBC ( 1  4  3  4 0 0)

     celldm(1)=   7.630000  celldm(2)=   0.000000  celldm(3)=   0.000000
     celldm(4)=   0.000000  celldm(5)=   0.000000  celldm(6)=   0.000000

     crystal axes: (cart. coord. in units of alat)
               a(1) = (   0.950000   0.000000   0.000000 )  
               a(2) = (   0.000000   0.950000   0.000000 )  
               a(3) = (   0.000000   0.000000   0.950000 )  

     reciprocal axes: (cart. coord. in units 2 pi/alat)
               b(1) = (  1.052632  0.000000  0.000000 )  
               b(2) = (  0.000000  1.052632  0.000000 )  
               b(3) = (  0.000000  0.000000  1.052632 )  


     PseudoPot. # 1 for Al read from file:
     /home/ben/espresso/pp/Al.pbe-nl-kjpaw_psl.1.0.0.UPF
     MD5 check sum: 339dbea23cf3ab9a065ad45c0f9085d7
     Pseudo is Projector augmented-wave + core cor, Zval =  3.0
     Generated using "atomic" code by A. Dal Corso  v.5.1
     Shape of augmentation charge: PSQ
     Using radial grid of 1135 points,  4 beta functions with: 
                l(1) =   0
                l(2) =   0
                l(3) =   1
                l(4) =   1
     Q(r) pseudized with 0 coefficients 


     PseudoPot. # 2 for Al read from file:
     /home/ben/espresso/pp/Al.pbe-nl-kjpaw_psl.1.0.0.UPF
     MD5 check sum: 339dbea23cf3ab9a065ad45c0f9085d7
     Pseudo is Projector augmented-wave + core cor, Zval =  3.0
     Generated using "atomic" code by A. Dal Corso  v.5.1
     Shape of augmentation charge: PSQ
     Using radial grid of 1135 points,  4 beta functions with: 
                l(1) =   0
                l(2) =   0
                l(3) =   1
                l(4) =   1
     Q(r) pseudized with 0 coefficients 


     PseudoPot. # 3 for Al read from file:
     /home/ben/espresso/pp/Al.pbe-nl-kjpaw_psl.1.0.0.UPF
     MD5 check sum: 339dbea23cf3ab9a065ad45c0f9085d7
     Pseudo is Projector augmented-wave + core cor, Zval =  3.0
     Generated using "atomic" code by A. Dal Corso  v.5.1
     Shape of augmentation charge: PSQ
     Using radial grid of 1135 points,  4 beta functions with: 
                l(1) =   0
                l(2) =   0
                l(3) =   1
                l(4) =   1
     Q(r) pseudized with 0 coefficients 


     PseudoPot. # 4 for Al read from file:
     /home/ben/espresso/pp/Al.pbe-nl-kjpaw_psl.1.0.0.UPF
     MD5 check sum: 339dbea23cf3ab9a065ad45c0f9085d7
     Pseudo is Projector augmented-wave + core cor, Zval =  3.0
     Generated using "atomic" code by A. Dal Corso  v.5.1
     Shape of augmentation charge: PSQ
     Using radial grid of 1135 points,  4 beta functions with: 
                l(1) =   0
                l(2) =   0
                l(3) =   1
                l(4) =   1
     Q(r) pseudized with 0 coefficients 


     atomic species   valence    mass     pseudopotential
        Al1            3.00    26.98200     Al( 1.00)
        Al2            3.00    26.98200     Al( 1.00)
        Al3            3.00    26.98200     Al( 1.00)
        Al4            3.00    26.98200     Al( 1.00)

      8 Sym. Ops., with inversion, found



   Cartesian axes

     site n.     atom                  positions (alat units)
         1           Al1 tau(   1) = (   0.0000000   0.0000000   0.0000000  )
         2           Al2 tau(   2) = (   0.4750000   0.4750000   0.0000000  )
         3           Al3 tau(   3) = (   0.4750000   0.0000000   0.4750000  )
         4           Al4 tau(   4) = (   0.0000000   0.4750000   0.4750000  )

     number of k points=   125  Marzari-Vanderbilt smearing, width (Ry)=  0.0200

     Number of k-points >= 100: set verbosity='high' to print them.

     Dense  grid:    18277 G-vectors     FFT dimensions: (  36,  36,  36)

     Smooth grid:    10779 G-vectors     FFT dimensions: (  27,  27,  27)

     Estimated max dynamical RAM per process >      10.13Mb

     Estimated total allocated dynamical RAM >      40.52Mb

     Initial potential from superposition of free atoms

     starting charge   11.99084, renormalised to   12.00000
     Starting wfc are   16 randomized atomic wfcs
     Checking if some PAW data can be deallocated... 

     total cpu time spent up to now is        2.7 secs

     per-process dynamical memory:    19.6 Mb

     Self-consistent Calculation

     iteration #  1     ecut=    35.00 Ry     beta=0.30
     Davidson diagonalization with overlap
     ethr =  1.00E-02,  avg # of iterations =  3.9

     Threshold (ethr) on eigenvalues was too large:
     Diagonalizing with lowered threshold

     Davidson diagonalization with overlap
     ethr =  1.88E-04,  avg # of iterations =  3.3

     total cpu time spent up to now is        8.5 secs

     total energy              =    -157.98341861 Ry
     Harris-Foulkes estimate   =    -157.98558949 Ry
     estimated scf accuracy    <       0.02220852 Ry

     iteration #  2     ecut=    35.00 Ry     beta=0.30
     Davidson diagonalization with overlap
     ethr =  1.85E-04,  avg # of iterations =  1.2

     total cpu time spent up to now is       14.1 secs

     total energy              =    -157.97925148 Ry
     Harris-Foulkes estimate   =    -157.98350018 Ry
     estimated scf accuracy    <       0.01375686 Ry

     iteration #  3     ecut=    35.00 Ry     beta=0.30
     Davidson diagonalization with overlap
     ethr =  1.15E-04,  avg # of iterations =  1.0

     total cpu time spent up to now is       19.6 secs

     total energy              =    -157.97943456 Ry
     Harris-Foulkes estimate   =    -157.97942827 Ry
     estimated scf accuracy    <       0.00003583 Ry

     iteration #  4     ecut=    35.00 Ry     beta=0.30
     Davidson diagonalization with overlap
     ethr =  2.99E-07,  avg # of iterations =  3.4

     total cpu time spent up to now is       23.1 secs

     total energy              =    -157.97949503 Ry
     Harris-Foulkes estimate   =    -157.97947798 Ry
     estimated scf accuracy    <       0.00001663 Ry

     iteration #  5     ecut=    35.00 Ry     beta=0.30
     Davidson diagonalization with overlap
     ethr =  1.39E-07,  avg # of iterations =  1.1

     total cpu time spent up to now is       24.9 secs

     total energy              =    -157.97949492 Ry
     Harris-Foulkes estimate   =    -157.97949628 Ry
     estimated scf accuracy    <       0.00000398 Ry

     iteration #  6     ecut=    35.00 Ry     beta=0.30
     Davidson diagonalization with overlap
     ethr =  3.32E-08,  avg # of iterations =  2.2

     total cpu time spent up to now is       27.0 secs

     End of self-consistent calculation

     Number of k-points >= 100: set verbosity='high' to print the bands.

     the Fermi energy is     9.7012 ev

!    total energy              =    -157.97949555 Ry
     Harris-Foulkes estimate   =    -157.97949583 Ry
     estimated scf accuracy    <       0.00000013 Ry

     total all-electron energy =     -1942.550623 Ry

     The total energy is the sum of the following terms:

     one-electron contribution =      14.24920277 Ry
     hartree contribution      =       0.03283309 Ry
     xc contribution           =     -10.71529023 Ry
     ewald contribution        =     -22.77092292 Ry
     one-center paw contrib.   =    -138.77499093 Ry
     smearing contrib. (-TS)   =      -0.00032732 Ry

     convergence has been achieved in   6 iterations

     Forces acting on atoms (Ry/au):

     atom    1 type  1   force =     0.00000000    0.00000000    0.00000000
     atom    2 type  2   force =     0.00000000    0.00000000    0.00000000
     atom    3 type  3   force =     0.00000000    0.00000000    0.00000000
     atom    4 type  4   force =     0.00000000    0.00000000    0.00000000

     Total force =     0.000000     Total SCF correction =     0.000000


     entering subroutine stress ...

          total   stress  (Ry/bohr**3)                   (kbar)     P=  170.91
   0.00116180   0.00000000   0.00000000        170.91      0.00      0.00
   0.00000000   0.00116179   0.00000000          0.00    170.91      0.00
   0.00000000   0.00000000   0.00116179          0.00      0.00    170.91


     Writing output data file template.save

     init_run     :      1.58s CPU      1.60s WALL (       1 calls)
     electrons    :     23.47s CPU     24.37s WALL (       1 calls)
     forces       :      0.23s CPU      0.23s WALL (       1 calls)
     stress       :      0.61s CPU      0.61s WALL (       1 calls)

     Called by init_run:
     wfcinit      :      1.05s CPU      1.06s WALL (       1 calls)
     potinit      :      0.11s CPU      0.11s WALL (       1 calls)

     Called by electrons:
     c_bands      :     18.35s CPU     19.10s WALL (       7 calls)
     sum_band     :      4.04s CPU      4.13s WALL (       7 calls)
     v_of_rho     :      0.15s CPU      0.16s WALL (       7 calls)
     newd         :      0.14s CPU      0.15s WALL (       7 calls)
     PAW_pot      :      0.86s CPU      0.89s WALL (       7 calls)
     mix_rho      :      0.01s CPU      0.02s WALL (       7 calls)

     Called by c_bands:
     init_us_2    :      0.66s CPU      0.67s WALL (    2125 calls)
     cegterg      :     17.55s CPU     18.28s WALL (     875 calls)

     Called by sum_band:
     sum_band:bec :      0.02s CPU      0.02s WALL (     875 calls)
     addusdens    :      0.16s CPU      0.15s WALL (       7 calls)

     Called by *egterg:
     h_psi        :     15.49s CPU     16.16s WALL (    3002 calls)
     s_psi        :      0.39s CPU      0.41s WALL (    3002 calls)
     g_psi        :      0.08s CPU      0.05s WALL (    2002 calls)
     cdiaghg      :      0.84s CPU      0.89s WALL (    2752 calls)

     Called by h_psi:
     h_psi:pot    :     15.44s CPU     16.11s WALL (    3002 calls)
     h_psi:calbec :      0.60s CPU      0.66s WALL (    3002 calls)
     vloc_psi     :     14.38s CPU     14.99s WALL (    3002 calls)
     add_vuspsi   :      0.45s CPU      0.44s WALL (    3002 calls)

     General routines
     calbec       :      0.95s CPU      1.03s WALL (    4502 calls)
     fft          :      0.15s CPU      0.14s WALL (     137 calls)
     ffts         :      0.01s CPU      0.01s WALL (      14 calls)
     fftw         :     16.46s CPU     17.00s WALL (   57262 calls)
     interpolate  :      0.01s CPU      0.02s WALL (      14 calls)
     davcio       :      0.00s CPU      0.00s WALL (     125 calls)

     Parallel routines
     fft_scatter  :      4.82s CPU      4.92s WALL (   57413 calls)

     PWSCF        :    27.15s CPU        28.20s WALL


   This run was terminated on:  10:42:16  30May2017            

=------------------------------------------------------------------------------=
   JOB DONE.
=------------------------------------------------------------------------------=
