
     Program PWSCF v.6.0 (svn rev. 13079) starts on 30May2017 at 10:52:35 

     This program is part of the open-source Quantum ESPRESSO suite
     for quantum simulation of materials; please cite
         "P. Giannozzi et al., J. Phys.:Condens. Matter 21 395502 (2009);
          URL http://www.quantum-espresso.org", 
     in publications or presentations arising from this work. More details at
     http://www.quantum-espresso.org/quote

     Parallel version (MPI), running on     4 processors
     R & G space division:  proc/nbgrp/npool/nimage =       4
     Waiting for input...
     Reading input from standard input
Warning: card &IONS ignored
Warning: card ION_DYNAMICS='BFGS', ignored
Warning: card / ignored
Warning: card &CELL ignored
Warning: card CELL_DYNAMICS='BFGS', ignored
Warning: card PRESS = 0.0, ignored
Warning: card CELL_FACTOR = 2.0, ignored
Warning: card / ignored

     Current dimensions of program PWSCF are:
     Max number of different atomic species (ntypx) = 10
     Max number of k-points (npk) =  40000
     Max angular momentum in pseudopotentials (lmaxx) =  3
               file Al.pbe-nl-kjpaw_psl.1.0.0.UPF: wavefunction(s)  3S 3P renormalized
               file Al.pbe-nl-kjpaw_psl.1.0.0.UPF: wavefunction(s)  3S 3P renormalized
               file Al.pbe-nl-kjpaw_psl.1.0.0.UPF: wavefunction(s)  3S 3P renormalized
               file Al.pbe-nl-kjpaw_psl.1.0.0.UPF: wavefunction(s)  3S 3P renormalized

     Subspace diagonalization in iterative solution of the eigenvalue problem:
     a serial algorithm will be used


     Parallelization info
     --------------------
     sticks:   dense  smooth     PW     G-vecs:    dense   smooth      PW
     Min         242     168     53                 5720     3324     575
     Max         244     169     54                 5723     3329     576
     Sum         973     673    213                22887    13301    2301



     bravais-lattice index     =            0
     lattice parameter (alat)  =       7.6300  a.u.
     unit-cell volume          =     478.3494 (a.u.)^3
     number of atoms/cell      =            4
     number of atomic types    =            4
     number of electrons       =        12.00
     number of Kohn-Sham states=           10
     kinetic-energy cutoff     =      35.0000  Ry
     charge density cutoff     =     200.0000  Ry
     convergence threshold     =      1.0E-06
     mixing beta               =       0.3000
     number of iterations used =           10  TF        mixing
     Exchange-correlation      =  SLA  PW   PBX  PBC ( 1  4  3  4 0 0)

     celldm(1)=   7.630000  celldm(2)=   0.000000  celldm(3)=   0.000000
     celldm(4)=   0.000000  celldm(5)=   0.000000  celldm(6)=   0.000000

     crystal axes: (cart. coord. in units of alat)
               a(1) = (   1.025000   0.000000   0.000000 )  
               a(2) = (   0.000000   1.025000   0.000000 )  
               a(3) = (   0.000000   0.000000   1.025000 )  

     reciprocal axes: (cart. coord. in units 2 pi/alat)
               b(1) = (  0.975610  0.000000  0.000000 )  
               b(2) = (  0.000000  0.975610  0.000000 )  
               b(3) = (  0.000000  0.000000  0.975610 )  


     PseudoPot. # 1 for Al read from file:
     /home/ben/espresso/pp/Al.pbe-nl-kjpaw_psl.1.0.0.UPF
     MD5 check sum: 339dbea23cf3ab9a065ad45c0f9085d7
     Pseudo is Projector augmented-wave + core cor, Zval =  3.0
     Generated using "atomic" code by A. Dal Corso  v.5.1
     Shape of augmentation charge: PSQ
     Using radial grid of 1135 points,  4 beta functions with: 
                l(1) =   0
                l(2) =   0
                l(3) =   1
                l(4) =   1
     Q(r) pseudized with 0 coefficients 


     PseudoPot. # 2 for Al read from file:
     /home/ben/espresso/pp/Al.pbe-nl-kjpaw_psl.1.0.0.UPF
     MD5 check sum: 339dbea23cf3ab9a065ad45c0f9085d7
     Pseudo is Projector augmented-wave + core cor, Zval =  3.0
     Generated using "atomic" code by A. Dal Corso  v.5.1
     Shape of augmentation charge: PSQ
     Using radial grid of 1135 points,  4 beta functions with: 
                l(1) =   0
                l(2) =   0
                l(3) =   1
                l(4) =   1
     Q(r) pseudized with 0 coefficients 


     PseudoPot. # 3 for Al read from file:
     /home/ben/espresso/pp/Al.pbe-nl-kjpaw_psl.1.0.0.UPF
     MD5 check sum: 339dbea23cf3ab9a065ad45c0f9085d7
     Pseudo is Projector augmented-wave + core cor, Zval =  3.0
     Generated using "atomic" code by A. Dal Corso  v.5.1
     Shape of augmentation charge: PSQ
     Using radial grid of 1135 points,  4 beta functions with: 
                l(1) =   0
                l(2) =   0
                l(3) =   1
                l(4) =   1
     Q(r) pseudized with 0 coefficients 


     PseudoPot. # 4 for Al read from file:
     /home/ben/espresso/pp/Al.pbe-nl-kjpaw_psl.1.0.0.UPF
     MD5 check sum: 339dbea23cf3ab9a065ad45c0f9085d7
     Pseudo is Projector augmented-wave + core cor, Zval =  3.0
     Generated using "atomic" code by A. Dal Corso  v.5.1
     Shape of augmentation charge: PSQ
     Using radial grid of 1135 points,  4 beta functions with: 
                l(1) =   0
                l(2) =   0
                l(3) =   1
                l(4) =   1
     Q(r) pseudized with 0 coefficients 


     atomic species   valence    mass     pseudopotential
        Al1            3.00    26.98200     Al( 1.00)
        Al2            3.00    26.98200     Al( 1.00)
        Al3            3.00    26.98200     Al( 1.00)
        Al4            3.00    26.98200     Al( 1.00)

      8 Sym. Ops., with inversion, found



   Cartesian axes

     site n.     atom                  positions (alat units)
         1           Al1 tau(   1) = (   0.0000000   0.0000000   0.0000000  )
         2           Al2 tau(   2) = (   0.5125000   0.5125000   0.0000000  )
         3           Al3 tau(   3) = (   0.5125000   0.0000000   0.5125000  )
         4           Al4 tau(   4) = (   0.0000000   0.5125000   0.5125000  )

     number of k points=   125  Marzari-Vanderbilt smearing, width (Ry)=  0.0200

     Number of k-points >= 100: set verbosity='high' to print them.

     Dense  grid:    22887 G-vectors     FFT dimensions: (  36,  36,  36)

     Smooth grid:    13301 G-vectors     FFT dimensions: (  30,  30,  30)

     Estimated max dynamical RAM per process >      12.49Mb

     Estimated total allocated dynamical RAM >      49.96Mb

     Initial potential from superposition of free atoms

     starting charge   11.99084, renormalised to   12.00000
     Starting wfc are   16 randomized atomic wfcs
     Checking if some PAW data can be deallocated... 

     total cpu time spent up to now is        4.0 secs

     per-process dynamical memory:    21.6 Mb

     Self-consistent Calculation

     iteration #  1     ecut=    35.00 Ry     beta=0.30
     Davidson diagonalization with overlap
     ethr =  1.00E-02,  avg # of iterations =  3.2

     Threshold (ethr) on eigenvalues was too large:
     Diagonalizing with lowered threshold

     Davidson diagonalization with overlap
     ethr =  1.96E-04,  avg # of iterations =  4.1

     total cpu time spent up to now is       26.6 secs

     total energy              =    -158.00924930 Ry
     Harris-Foulkes estimate   =    -158.01126074 Ry
     estimated scf accuracy    <       0.02263774 Ry

     iteration #  2     ecut=    35.00 Ry     beta=0.30
     Davidson diagonalization with overlap
     ethr =  1.89E-04,  avg # of iterations =  1.0

     total cpu time spent up to now is       30.5 secs

     total energy              =    -158.00502462 Ry
     Harris-Foulkes estimate   =    -158.00937652 Ry
     estimated scf accuracy    <       0.01412968 Ry

     iteration #  3     ecut=    35.00 Ry     beta=0.30
     Davidson diagonalization with overlap
     ethr =  1.18E-04,  avg # of iterations =  1.0

     total cpu time spent up to now is       46.7 secs

     total energy              =    -158.00532659 Ry
     Harris-Foulkes estimate   =    -158.00532064 Ry
     estimated scf accuracy    <       0.00003554 Ry

     iteration #  4     ecut=    35.00 Ry     beta=0.30
     Davidson diagonalization with overlap
     ethr =  2.96E-07,  avg # of iterations =  3.8

     total cpu time spent up to now is       54.5 secs

     total energy              =    -158.00540278 Ry
     Harris-Foulkes estimate   =    -158.00539172 Ry
     estimated scf accuracy    <       0.00001789 Ry

     iteration #  5     ecut=    35.00 Ry     beta=0.30
     Davidson diagonalization with overlap
     ethr =  1.49E-07,  avg # of iterations =  1.0

     total cpu time spent up to now is       62.0 secs

     total energy              =    -158.00540068 Ry
     Harris-Foulkes estimate   =    -158.00540378 Ry
     estimated scf accuracy    <       0.00000690 Ry

     iteration #  6     ecut=    35.00 Ry     beta=0.30
     Davidson diagonalization with overlap
     ethr =  5.75E-08,  avg # of iterations =  2.0

     total cpu time spent up to now is       74.1 secs

     End of self-consistent calculation

     Number of k-points >= 100: set verbosity='high' to print the bands.

     the Fermi energy is     7.2245 ev

!    total energy              =    -158.00540125 Ry
     Harris-Foulkes estimate   =    -158.00540151 Ry
     estimated scf accuracy    <       0.00000008 Ry

     total all-electron energy =     -1942.576529 Ry

     The total energy is the sum of the following terms:

     one-electron contribution =      11.97811123 Ry
     hartree contribution      =       0.02403618 Ry
     xc contribution           =     -10.21476843 Ry
     ewald contribution        =     -21.10475783 Ry
     one-center paw contrib.   =    -138.68752032 Ry
     smearing contrib. (-TS)   =      -0.00050208 Ry

     convergence has been achieved in   6 iterations

     Forces acting on atoms (Ry/au):

     atom    1 type  1   force =     0.00000000    0.00000000    0.00000000
     atom    2 type  2   force =     0.00000000    0.00000000    0.00000000
     atom    3 type  3   force =     0.00000000    0.00000000    0.00000000
     atom    4 type  4   force =     0.00000000    0.00000000    0.00000000

     Total force =     0.000000     Total SCF correction =     0.000000


     entering subroutine stress ...

          total   stress  (Ry/bohr**3)                   (kbar)     P=  -48.24
  -0.00032791   0.00000000   0.00000000        -48.24      0.00      0.00
   0.00000000  -0.00032791   0.00000000          0.00    -48.24      0.00
   0.00000000   0.00000000  -0.00032791          0.00      0.00    -48.24


     Writing output data file template.save

     init_run     :      2.62s CPU      2.73s WALL (       1 calls)
     electrons    :     56.44s CPU     70.15s WALL (       1 calls)
     forces       :      0.52s CPU      0.57s WALL (       1 calls)
     stress       :      1.03s CPU      1.11s WALL (       1 calls)

     Called by init_run:
     wfcinit      :      2.02s CPU      2.09s WALL (       1 calls)
     potinit      :      0.12s CPU      0.13s WALL (       1 calls)

     Called by electrons:
     c_bands      :     45.20s CPU     56.08s WALL (       7 calls)
     sum_band     :     10.32s CPU     12.91s WALL (       7 calls)
     v_of_rho     :      0.14s CPU      0.15s WALL (       7 calls)
     newd         :      0.16s CPU      0.24s WALL (       7 calls)
     PAW_pot      :      0.67s CPU      0.82s WALL (       7 calls)
     mix_rho      :      0.02s CPU      0.03s WALL (       7 calls)

     Called by c_bands:
     init_us_2    :      0.89s CPU      0.92s WALL (    2125 calls)
     cegterg      :     43.93s CPU     54.51s WALL (     875 calls)

     Called by sum_band:
     sum_band:bec :      0.02s CPU      0.02s WALL (     875 calls)
     addusdens    :      0.23s CPU      0.25s WALL (       7 calls)

     Called by *egterg:
     h_psi        :     39.89s CPU     49.16s WALL (    3025 calls)
     s_psi        :      0.62s CPU      0.68s WALL (    3025 calls)
     g_psi        :      0.07s CPU      0.08s WALL (    2025 calls)
     cdiaghg      :      1.32s CPU      1.61s WALL (    2775 calls)

     Called by h_psi:
     h_psi:pot    :     39.80s CPU     49.07s WALL (    3025 calls)
     h_psi:calbec :      1.35s CPU      1.57s WALL (    3025 calls)
     vloc_psi     :     37.82s CPU     46.73s WALL (    3025 calls)
     add_vuspsi   :      0.59s CPU      0.75s WALL (    3025 calls)

     General routines
     calbec       :      2.41s CPU      2.91s WALL (    4525 calls)
     fft          :      0.25s CPU      0.27s WALL (     137 calls)
     ffts         :      0.02s CPU      0.03s WALL (      14 calls)
     fftw         :     45.08s CPU     56.02s WALL (   57358 calls)
     interpolate  :      0.04s CPU      0.05s WALL (      14 calls)
     davcio       :      0.00s CPU      0.01s WALL (     125 calls)

     Parallel routines
     fft_scatter  :     20.97s CPU     27.51s WALL (   57509 calls)

     PWSCF        :  1m 1.99s CPU     1m16.25s WALL


   This run was terminated on:  10:53:51  30May2017            

=------------------------------------------------------------------------------=
   JOB DONE.
=------------------------------------------------------------------------------=
