
     Program PWSCF v.6.0 (svn rev. 13079) starts on 30May2017 at 10:48: 2 

     This program is part of the open-source Quantum ESPRESSO suite
     for quantum simulation of materials; please cite
         "P. Giannozzi et al., J. Phys.:Condens. Matter 21 395502 (2009);
          URL http://www.quantum-espresso.org", 
     in publications or presentations arising from this work. More details at
     http://www.quantum-espresso.org/quote

     Parallel version (MPI), running on     4 processors
     R & G space division:  proc/nbgrp/npool/nimage =       4
     Waiting for input...
     Reading input from standard input
Warning: card &IONS ignored
Warning: card ION_DYNAMICS='BFGS', ignored
Warning: card / ignored
Warning: card &CELL ignored
Warning: card CELL_DYNAMICS='BFGS', ignored
Warning: card PRESS = 0.0, ignored
Warning: card CELL_FACTOR = 2.0, ignored
Warning: card / ignored

     Current dimensions of program PWSCF are:
     Max number of different atomic species (ntypx) = 10
     Max number of k-points (npk) =  40000
     Max angular momentum in pseudopotentials (lmaxx) =  3
               file Al.pbe-nl-kjpaw_psl.1.0.0.UPF: wavefunction(s)  3S 3P renormalized
               file Al.pbe-nl-kjpaw_psl.1.0.0.UPF: wavefunction(s)  3S 3P renormalized
               file Al.pbe-nl-kjpaw_psl.1.0.0.UPF: wavefunction(s)  3S 3P renormalized
               file Al.pbe-nl-kjpaw_psl.1.0.0.UPF: wavefunction(s)  3S 3P renormalized

     Subspace diagonalization in iterative solution of the eigenvalue problem:
     a serial algorithm will be used


     Parallelization info
     --------------------
     sticks:   dense  smooth     PW     G-vecs:    dense   smooth      PW
     Min         235     165     48                 5389     3139     524
     Max         236     167     49                 5392     3140     527
     Sum         941     665    193                21559    12557    2103



     bravais-lattice index     =            0
     lattice parameter (alat)  =       7.6300  a.u.
     unit-cell volume          =     450.8912 (a.u.)^3
     number of atoms/cell      =            4
     number of atomic types    =            4
     number of electrons       =        12.00
     number of Kohn-Sham states=           10
     kinetic-energy cutoff     =      35.0000  Ry
     charge density cutoff     =     200.0000  Ry
     convergence threshold     =      1.0E-06
     mixing beta               =       0.3000
     number of iterations used =           10  TF        mixing
     Exchange-correlation      =  SLA  PW   PBX  PBC ( 1  4  3  4 0 0)

     celldm(1)=   7.630000  celldm(2)=   0.000000  celldm(3)=   0.000000
     celldm(4)=   0.000000  celldm(5)=   0.000000  celldm(6)=   0.000000

     crystal axes: (cart. coord. in units of alat)
               a(1) = (   1.005000   0.000000   0.000000 )  
               a(2) = (   0.000000   1.005000   0.000000 )  
               a(3) = (   0.000000   0.000000   1.005000 )  

     reciprocal axes: (cart. coord. in units 2 pi/alat)
               b(1) = (  0.995025  0.000000  0.000000 )  
               b(2) = (  0.000000  0.995025  0.000000 )  
               b(3) = (  0.000000  0.000000  0.995025 )  


     PseudoPot. # 1 for Al read from file:
     /home/ben/espresso/pp/Al.pbe-nl-kjpaw_psl.1.0.0.UPF
     MD5 check sum: 339dbea23cf3ab9a065ad45c0f9085d7
     Pseudo is Projector augmented-wave + core cor, Zval =  3.0
     Generated using "atomic" code by A. Dal Corso  v.5.1
     Shape of augmentation charge: PSQ
     Using radial grid of 1135 points,  4 beta functions with: 
                l(1) =   0
                l(2) =   0
                l(3) =   1
                l(4) =   1
     Q(r) pseudized with 0 coefficients 


     PseudoPot. # 2 for Al read from file:
     /home/ben/espresso/pp/Al.pbe-nl-kjpaw_psl.1.0.0.UPF
     MD5 check sum: 339dbea23cf3ab9a065ad45c0f9085d7
     Pseudo is Projector augmented-wave + core cor, Zval =  3.0
     Generated using "atomic" code by A. Dal Corso  v.5.1
     Shape of augmentation charge: PSQ
     Using radial grid of 1135 points,  4 beta functions with: 
                l(1) =   0
                l(2) =   0
                l(3) =   1
                l(4) =   1
     Q(r) pseudized with 0 coefficients 


     PseudoPot. # 3 for Al read from file:
     /home/ben/espresso/pp/Al.pbe-nl-kjpaw_psl.1.0.0.UPF
     MD5 check sum: 339dbea23cf3ab9a065ad45c0f9085d7
     Pseudo is Projector augmented-wave + core cor, Zval =  3.0
     Generated using "atomic" code by A. Dal Corso  v.5.1
     Shape of augmentation charge: PSQ
     Using radial grid of 1135 points,  4 beta functions with: 
                l(1) =   0
                l(2) =   0
                l(3) =   1
                l(4) =   1
     Q(r) pseudized with 0 coefficients 


     PseudoPot. # 4 for Al read from file:
     /home/ben/espresso/pp/Al.pbe-nl-kjpaw_psl.1.0.0.UPF
     MD5 check sum: 339dbea23cf3ab9a065ad45c0f9085d7
     Pseudo is Projector augmented-wave + core cor, Zval =  3.0
     Generated using "atomic" code by A. Dal Corso  v.5.1
     Shape of augmentation charge: PSQ
     Using radial grid of 1135 points,  4 beta functions with: 
                l(1) =   0
                l(2) =   0
                l(3) =   1
                l(4) =   1
     Q(r) pseudized with 0 coefficients 


     atomic species   valence    mass     pseudopotential
        Al1            3.00    26.98200     Al( 1.00)
        Al2            3.00    26.98200     Al( 1.00)
        Al3            3.00    26.98200     Al( 1.00)
        Al4            3.00    26.98200     Al( 1.00)

      8 Sym. Ops., with inversion, found



   Cartesian axes

     site n.     atom                  positions (alat units)
         1           Al1 tau(   1) = (   0.0000000   0.0000000   0.0000000  )
         2           Al2 tau(   2) = (   0.5025000   0.5025000   0.0000000  )
         3           Al3 tau(   3) = (   0.5025000   0.0000000   0.5025000  )
         4           Al4 tau(   4) = (   0.0000000   0.5025000   0.5025000  )

     number of k points=   125  Marzari-Vanderbilt smearing, width (Ry)=  0.0200

     Number of k-points >= 100: set verbosity='high' to print them.

     Dense  grid:    21559 G-vectors     FFT dimensions: (  36,  36,  36)

     Smooth grid:    12557 G-vectors     FFT dimensions: (  30,  30,  30)

     Estimated max dynamical RAM per process >      11.82Mb

     Estimated total allocated dynamical RAM >      47.29Mb

     Initial potential from superposition of free atoms

     starting charge   11.99084, renormalised to   12.00000
     Starting wfc are   16 randomized atomic wfcs
     Checking if some PAW data can be deallocated... 

     total cpu time spent up to now is        4.1 secs

     per-process dynamical memory:    21.3 Mb

     Self-consistent Calculation

     iteration #  1     ecut=    35.00 Ry     beta=0.30
     Davidson diagonalization with overlap
     ethr =  1.00E-02,  avg # of iterations =  3.2

     Threshold (ethr) on eigenvalues was too large:
     Diagonalizing with lowered threshold

     Davidson diagonalization with overlap
     ethr =  1.96E-04,  avg # of iterations =  4.0

     total cpu time spent up to now is       24.2 secs

     total energy              =    -158.01501630 Ry
     Harris-Foulkes estimate   =    -158.01705009 Ry
     estimated scf accuracy    <       0.02267323 Ry

     iteration #  2     ecut=    35.00 Ry     beta=0.30
     Davidson diagonalization with overlap
     ethr =  1.89E-04,  avg # of iterations =  1.0

     total cpu time spent up to now is       27.8 secs

     total energy              =    -158.01077811 Ry
     Harris-Foulkes estimate   =    -158.01513191 Ry
     estimated scf accuracy    <       0.01413058 Ry

     iteration #  3     ecut=    35.00 Ry     beta=0.30
     Davidson diagonalization with overlap
     ethr =  1.18E-04,  avg # of iterations =  1.1

     total cpu time spent up to now is       30.7 secs

     total energy              =    -158.01105153 Ry
     Harris-Foulkes estimate   =    -158.01103990 Ry
     estimated scf accuracy    <       0.00003589 Ry

     iteration #  4     ecut=    35.00 Ry     beta=0.30
     Davidson diagonalization with overlap
     ethr =  2.99E-07,  avg # of iterations =  3.7

     total cpu time spent up to now is       47.2 secs

     total energy              =    -158.01112794 Ry
     Harris-Foulkes estimate   =    -158.01111220 Ry
     estimated scf accuracy    <       0.00001753 Ry

     iteration #  5     ecut=    35.00 Ry     beta=0.30
     Davidson diagonalization with overlap
     ethr =  1.46E-07,  avg # of iterations =  1.0

     total cpu time spent up to now is       50.6 secs

     total energy              =    -158.01112602 Ry
     Harris-Foulkes estimate   =    -158.01112885 Ry
     estimated scf accuracy    <       0.00000634 Ry

     iteration #  6     ecut=    35.00 Ry     beta=0.30
     Davidson diagonalization with overlap
     ethr =  5.28E-08,  avg # of iterations =  2.0

     total cpu time spent up to now is       54.3 secs

     End of self-consistent calculation

     Number of k-points >= 100: set verbosity='high' to print the bands.

     the Fermi energy is     7.8343 ev

!    total energy              =    -158.01112669 Ry
     Harris-Foulkes estimate   =    -158.01112689 Ry
     estimated scf accuracy    <       0.00000007 Ry

     total all-electron energy =     -1942.582254 Ry

     The total energy is the sum of the following terms:

     one-electron contribution =      12.53188340 Ry
     hartree contribution      =       0.02404353 Ry
     xc contribution           =     -10.33676039 Ry
     ewald contribution        =     -21.52475301 Ry
     one-center paw contrib.   =    -138.70497164 Ry
     smearing contrib. (-TS)   =      -0.00056858 Ry

     convergence has been achieved in   6 iterations

     Forces acting on atoms (Ry/au):

     atom    1 type  1   force =     0.00000000    0.00000000    0.00000000
     atom    2 type  2   force =     0.00000000    0.00000000    0.00000000
     atom    3 type  3   force =     0.00000000    0.00000000    0.00000000
     atom    4 type  4   force =     0.00000000    0.00000000    0.00000000

     Total force =     0.000000     Total SCF correction =     0.000000


     entering subroutine stress ...

          total   stress  (Ry/bohr**3)                   (kbar)     P=  -11.58
  -0.00007875   0.00000000   0.00000000        -11.58      0.00      0.00
   0.00000000  -0.00007874   0.00000000          0.00    -11.58      0.00
   0.00000000   0.00000000  -0.00007875          0.00      0.00    -11.58


     Writing output data file template.save

     init_run     :      2.53s CPU      2.86s WALL (       1 calls)
     electrons    :     44.92s CPU     50.27s WALL (       1 calls)
     forces       :      0.30s CPU      0.33s WALL (       1 calls)
     stress       :      0.86s CPU      0.92s WALL (       1 calls)

     Called by init_run:
     wfcinit      :      1.95s CPU      2.19s WALL (       1 calls)
     potinit      :      0.11s CPU      0.15s WALL (       1 calls)

     Called by electrons:
     c_bands      :     38.58s CPU     43.27s WALL (       7 calls)
     sum_band     :      5.70s CPU      6.34s WALL (       7 calls)
     v_of_rho     :      0.09s CPU      0.09s WALL (       7 calls)
     newd         :      0.13s CPU      0.13s WALL (       7 calls)
     PAW_pot      :      0.49s CPU      0.55s WALL (       7 calls)
     mix_rho      :      0.02s CPU      0.01s WALL (       7 calls)

     Called by c_bands:
     init_us_2    :      0.54s CPU      0.75s WALL (    2125 calls)
     cegterg      :     37.56s CPU     42.02s WALL (     875 calls)

     Called by sum_band:
     sum_band:bec :      0.02s CPU      0.01s WALL (     875 calls)
     addusdens    :      0.16s CPU      0.18s WALL (       7 calls)

     Called by *egterg:
     h_psi        :     34.45s CPU     38.66s WALL (    3009 calls)
     s_psi        :      0.63s CPU      0.63s WALL (    3009 calls)
     g_psi        :      0.10s CPU      0.09s WALL (    2009 calls)
     cdiaghg      :      1.32s CPU      1.45s WALL (    2759 calls)

     Called by h_psi:
     h_psi:pot    :     34.37s CPU     38.58s WALL (    3009 calls)
     h_psi:calbec :      1.06s CPU      1.24s WALL (    3009 calls)
     vloc_psi     :     32.68s CPU     36.63s WALL (    3009 calls)
     add_vuspsi   :      0.61s CPU      0.70s WALL (    3009 calls)

     General routines
     calbec       :      1.47s CPU      1.74s WALL (    4509 calls)
     fft          :      0.12s CPU      0.12s WALL (     137 calls)
     ffts         :      0.00s CPU      0.01s WALL (      14 calls)
     fftw         :     36.06s CPU     40.46s WALL (   57380 calls)
     interpolate  :      0.02s CPU      0.02s WALL (      14 calls)
     davcio       :      0.00s CPU      0.01s WALL (     125 calls)

     Parallel routines
     fft_scatter  :     11.63s CPU     13.97s WALL (   57531 calls)

     PWSCF        :    49.97s CPU        55.96s WALL


   This run was terminated on:  10:48:58  30May2017            

=------------------------------------------------------------------------------=
   JOB DONE.
=------------------------------------------------------------------------------=
