
     Program PWSCF v.6.0 (svn rev. 13079) starts on 30May2017 at 10:56:50 

     This program is part of the open-source Quantum ESPRESSO suite
     for quantum simulation of materials; please cite
         "P. Giannozzi et al., J. Phys.:Condens. Matter 21 395502 (2009);
          URL http://www.quantum-espresso.org", 
     in publications or presentations arising from this work. More details at
     http://www.quantum-espresso.org/quote

     Parallel version (MPI), running on     4 processors
     R & G space division:  proc/nbgrp/npool/nimage =       4
     Waiting for input...
     Reading input from standard input
Warning: card &IONS ignored
Warning: card ION_DYNAMICS='BFGS', ignored
Warning: card / ignored
Warning: card &CELL ignored
Warning: card CELL_DYNAMICS='BFGS', ignored
Warning: card PRESS = 0.0, ignored
Warning: card CELL_FACTOR = 2.0, ignored
Warning: card / ignored

     Current dimensions of program PWSCF are:
     Max number of different atomic species (ntypx) = 10
     Max number of k-points (npk) =  40000
     Max angular momentum in pseudopotentials (lmaxx) =  3
               file Al.pbe-nl-kjpaw_psl.1.0.0.UPF: wavefunction(s)  3S 3P renormalized
               file Al.pbe-nl-kjpaw_psl.1.0.0.UPF: wavefunction(s)  3S 3P renormalized
               file Al.pbe-nl-kjpaw_psl.1.0.0.UPF: wavefunction(s)  3S 3P renormalized
               file Al.pbe-nl-kjpaw_psl.1.0.0.UPF: wavefunction(s)  3S 3P renormalized

     Subspace diagonalization in iterative solution of the eigenvalue problem:
     a serial algorithm will be used


     Parallelization info
     --------------------
     sticks:   dense  smooth     PW     G-vecs:    dense   smooth      PW
     Min         251     175     55                 6051     3536     593
     Max         252     179     56                 6053     3537     594
     Sum        1005     709    221                24207    14147    2373



     bravais-lattice index     =            0
     lattice parameter (alat)  =       7.6300  a.u.
     unit-cell volume          =     506.9002 (a.u.)^3
     number of atoms/cell      =            4
     number of atomic types    =            4
     number of electrons       =        12.00
     number of Kohn-Sham states=           10
     kinetic-energy cutoff     =      35.0000  Ry
     charge density cutoff     =     200.0000  Ry
     convergence threshold     =      1.0E-06
     mixing beta               =       0.3000
     number of iterations used =           10  TF        mixing
     Exchange-correlation      =  SLA  PW   PBX  PBC ( 1  4  3  4 0 0)

     celldm(1)=   7.630000  celldm(2)=   0.000000  celldm(3)=   0.000000
     celldm(4)=   0.000000  celldm(5)=   0.000000  celldm(6)=   0.000000

     crystal axes: (cart. coord. in units of alat)
               a(1) = (   1.045000   0.000000   0.000000 )  
               a(2) = (   0.000000   1.045000   0.000000 )  
               a(3) = (   0.000000   0.000000   1.045000 )  

     reciprocal axes: (cart. coord. in units 2 pi/alat)
               b(1) = (  0.956938  0.000000  0.000000 )  
               b(2) = (  0.000000  0.956938  0.000000 )  
               b(3) = (  0.000000  0.000000  0.956938 )  


     PseudoPot. # 1 for Al read from file:
     /home/ben/espresso/pp/Al.pbe-nl-kjpaw_psl.1.0.0.UPF
     MD5 check sum: 339dbea23cf3ab9a065ad45c0f9085d7
     Pseudo is Projector augmented-wave + core cor, Zval =  3.0
     Generated using "atomic" code by A. Dal Corso  v.5.1
     Shape of augmentation charge: PSQ
     Using radial grid of 1135 points,  4 beta functions with: 
                l(1) =   0
                l(2) =   0
                l(3) =   1
                l(4) =   1
     Q(r) pseudized with 0 coefficients 


     PseudoPot. # 2 for Al read from file:
     /home/ben/espresso/pp/Al.pbe-nl-kjpaw_psl.1.0.0.UPF
     MD5 check sum: 339dbea23cf3ab9a065ad45c0f9085d7
     Pseudo is Projector augmented-wave + core cor, Zval =  3.0
     Generated using "atomic" code by A. Dal Corso  v.5.1
     Shape of augmentation charge: PSQ
     Using radial grid of 1135 points,  4 beta functions with: 
                l(1) =   0
                l(2) =   0
                l(3) =   1
                l(4) =   1
     Q(r) pseudized with 0 coefficients 


     PseudoPot. # 3 for Al read from file:
     /home/ben/espresso/pp/Al.pbe-nl-kjpaw_psl.1.0.0.UPF
     MD5 check sum: 339dbea23cf3ab9a065ad45c0f9085d7
     Pseudo is Projector augmented-wave + core cor, Zval =  3.0
     Generated using "atomic" code by A. Dal Corso  v.5.1
     Shape of augmentation charge: PSQ
     Using radial grid of 1135 points,  4 beta functions with: 
                l(1) =   0
                l(2) =   0
                l(3) =   1
                l(4) =   1
     Q(r) pseudized with 0 coefficients 


     PseudoPot. # 4 for Al read from file:
     /home/ben/espresso/pp/Al.pbe-nl-kjpaw_psl.1.0.0.UPF
     MD5 check sum: 339dbea23cf3ab9a065ad45c0f9085d7
     Pseudo is Projector augmented-wave + core cor, Zval =  3.0
     Generated using "atomic" code by A. Dal Corso  v.5.1
     Shape of augmentation charge: PSQ
     Using radial grid of 1135 points,  4 beta functions with: 
                l(1) =   0
                l(2) =   0
                l(3) =   1
                l(4) =   1
     Q(r) pseudized with 0 coefficients 


     atomic species   valence    mass     pseudopotential
        Al1            3.00    26.98200     Al( 1.00)
        Al2            3.00    26.98200     Al( 1.00)
        Al3            3.00    26.98200     Al( 1.00)
        Al4            3.00    26.98200     Al( 1.00)

      8 Sym. Ops., with inversion, found



   Cartesian axes

     site n.     atom                  positions (alat units)
         1           Al1 tau(   1) = (   0.0000000   0.0000000   0.0000000  )
         2           Al2 tau(   2) = (   0.5225000   0.5225000   0.0000000  )
         3           Al3 tau(   3) = (   0.5225000   0.0000000   0.5225000  )
         4           Al4 tau(   4) = (   0.0000000   0.5225000   0.5225000  )

     number of k points=   125  Marzari-Vanderbilt smearing, width (Ry)=  0.0200

     Number of k-points >= 100: set verbosity='high' to print them.

     Dense  grid:    24207 G-vectors     FFT dimensions: (  36,  36,  36)

     Smooth grid:    14147 G-vectors     FFT dimensions: (  32,  32,  32)

     Estimated max dynamical RAM per process >      13.18Mb

     Estimated total allocated dynamical RAM >      52.72Mb

     Initial potential from superposition of free atoms

     starting charge   11.99084, renormalised to   12.00000
     Starting wfc are   16 randomized atomic wfcs
     Checking if some PAW data can be deallocated... 

     total cpu time spent up to now is        2.9 secs

     per-process dynamical memory:    22.3 Mb

     Self-consistent Calculation

     iteration #  1     ecut=    35.00 Ry     beta=0.30
     Davidson diagonalization with overlap
     ethr =  1.00E-02,  avg # of iterations =  3.2

     Threshold (ethr) on eigenvalues was too large:
     Diagonalizing with lowered threshold

     Davidson diagonalization with overlap
     ethr =  1.95E-04,  avg # of iterations =  4.0

     total cpu time spent up to now is       11.7 secs

     total energy              =    -157.99717644 Ry
     Harris-Foulkes estimate   =    -157.99916041 Ry
     estimated scf accuracy    <       0.02246326 Ry

     iteration #  2     ecut=    35.00 Ry     beta=0.30
     Davidson diagonalization with overlap
     ethr =  1.87E-04,  avg # of iterations =  1.0

     total cpu time spent up to now is       17.4 secs

     total energy              =    -157.99300443 Ry
     Harris-Foulkes estimate   =    -157.99732000 Ry
     estimated scf accuracy    <       0.01404192 Ry

     iteration #  3     ecut=    35.00 Ry     beta=0.30
     Davidson diagonalization with overlap
     ethr =  1.17E-04,  avg # of iterations =  1.0

     total cpu time spent up to now is       21.5 secs

     total energy              =    -157.99333538 Ry
     Harris-Foulkes estimate   =    -157.99333668 Ry
     estimated scf accuracy    <       0.00003495 Ry

     iteration #  4     ecut=    35.00 Ry     beta=0.30
     Davidson diagonalization with overlap
     ethr =  2.91E-07,  avg # of iterations =  4.2

     total cpu time spent up to now is       24.8 secs

     total energy              =    -157.99340648 Ry
     Harris-Foulkes estimate   =    -157.99340159 Ry
     estimated scf accuracy    <       0.00001776 Ry

     iteration #  5     ecut=    35.00 Ry     beta=0.30
     Davidson diagonalization with overlap
     ethr =  1.48E-07,  avg # of iterations =  1.0

     total cpu time spent up to now is       26.7 secs

     total energy              =    -157.99340457 Ry
     Harris-Foulkes estimate   =    -157.99340766 Ry
     estimated scf accuracy    <       0.00000703 Ry

     iteration #  6     ecut=    35.00 Ry     beta=0.30
     Davidson diagonalization with overlap
     ethr =  5.86E-08,  avg # of iterations =  1.7

     total cpu time spent up to now is       28.8 secs

     End of self-consistent calculation

     Number of k-points >= 100: set verbosity='high' to print the bands.

     the Fermi energy is     6.6528 ev

!    total energy              =    -157.99340495 Ry
     Harris-Foulkes estimate   =    -157.99340531 Ry
     estimated scf accuracy    <       0.00000010 Ry

     total all-electron energy =     -1942.564533 Ry

     The total energy is the sum of the following terms:

     one-electron contribution =      11.45558259 Ry
     hartree contribution      =       0.02611881 Ry
     xc contribution           =     -10.10048637 Ry
     ewald contribution        =     -20.70083902 Ry
     one-center paw contrib.   =    -138.67347233 Ry
     smearing contrib. (-TS)   =      -0.00030862 Ry

     convergence has been achieved in   6 iterations

     Forces acting on atoms (Ry/au):

     atom    1 type  1   force =     0.00000000    0.00000000    0.00000000
     atom    2 type  2   force =     0.00000000    0.00000000    0.00000000
     atom    3 type  3   force =     0.00000000    0.00000000    0.00000000
     atom    4 type  4   force =     0.00000000    0.00000000    0.00000000

     Total force =     0.000000     Total SCF correction =     0.000000


     entering subroutine stress ...

          total   stress  (Ry/bohr**3)                   (kbar)     P=  -74.39
  -0.00050568   0.00000000   0.00000000        -74.39      0.00      0.00
   0.00000000  -0.00050569   0.00000000          0.00    -74.39      0.00
   0.00000000   0.00000000  -0.00050569          0.00      0.00    -74.39


     Writing output data file template.save

     init_run     :      1.76s CPU      1.82s WALL (       1 calls)
     electrons    :     25.12s CPU     25.91s WALL (       1 calls)
     forces       :      0.29s CPU      0.29s WALL (       1 calls)
     stress       :      0.89s CPU      0.91s WALL (       1 calls)

     Called by init_run:
     wfcinit      :      1.15s CPU      1.20s WALL (       1 calls)
     potinit      :      0.13s CPU      0.13s WALL (       1 calls)

     Called by electrons:
     c_bands      :     20.22s CPU     20.88s WALL (       7 calls)
     sum_band     :      3.90s CPU      4.01s WALL (       7 calls)
     v_of_rho     :      0.14s CPU      0.14s WALL (       7 calls)
     newd         :      0.18s CPU      0.18s WALL (       7 calls)
     PAW_pot      :      0.77s CPU      0.77s WALL (       7 calls)
     mix_rho      :      0.02s CPU      0.02s WALL (       7 calls)

     Called by c_bands:
     init_us_2    :      0.90s CPU      0.83s WALL (    2125 calls)
     cegterg      :     19.21s CPU     19.84s WALL (     875 calls)

     Called by sum_band:
     sum_band:bec :      0.02s CPU      0.02s WALL (     875 calls)
     addusdens    :      0.21s CPU      0.21s WALL (       7 calls)

     Called by *egterg:
     h_psi        :     16.40s CPU     16.88s WALL (    3023 calls)
     s_psi        :      0.54s CPU      0.57s WALL (    3023 calls)
     g_psi        :      0.04s CPU      0.08s WALL (    2023 calls)
     cdiaghg      :      0.97s CPU      0.98s WALL (    2773 calls)

     Called by h_psi:
     h_psi:pot    :     16.32s CPU     16.80s WALL (    3023 calls)
     h_psi:calbec :      0.81s CPU      0.86s WALL (    3023 calls)
     vloc_psi     :     14.89s CPU     15.32s WALL (    3023 calls)
     add_vuspsi   :      0.60s CPU      0.61s WALL (    3023 calls)

     General routines
     calbec       :      1.24s CPU      1.25s WALL (    4523 calls)
     fft          :      0.12s CPU      0.14s WALL (     137 calls)
     ffts         :      0.01s CPU      0.01s WALL (      14 calls)
     fftw         :     16.31s CPU     16.79s WALL (   57172 calls)
     interpolate  :      0.01s CPU      0.02s WALL (      14 calls)
     davcio       :      0.00s CPU      0.01s WALL (     125 calls)

     Parallel routines
     fft_scatter  :      5.68s CPU      5.82s WALL (   57323 calls)

     PWSCF        :    29.32s CPU        30.31s WALL


   This run was terminated on:  10:57:21  30May2017            

=------------------------------------------------------------------------------=
   JOB DONE.
=------------------------------------------------------------------------------=
