
     Program PWSCF v.6.0 (svn rev. 13079) starts on 30May2017 at 10:56: 4 

     This program is part of the open-source Quantum ESPRESSO suite
     for quantum simulation of materials; please cite
         "P. Giannozzi et al., J. Phys.:Condens. Matter 21 395502 (2009);
          URL http://www.quantum-espresso.org", 
     in publications or presentations arising from this work. More details at
     http://www.quantum-espresso.org/quote

     Parallel version (MPI), running on     4 processors
     R & G space division:  proc/nbgrp/npool/nimage =       4
     Waiting for input...
     Reading input from standard input
Warning: card &IONS ignored
Warning: card ION_DYNAMICS='BFGS', ignored
Warning: card / ignored
Warning: card &CELL ignored
Warning: card CELL_DYNAMICS='BFGS', ignored
Warning: card PRESS = 0.0, ignored
Warning: card CELL_FACTOR = 2.0, ignored
Warning: card / ignored

     Current dimensions of program PWSCF are:
     Max number of different atomic species (ntypx) = 10
     Max number of k-points (npk) =  40000
     Max angular momentum in pseudopotentials (lmaxx) =  3
               file Al.pbe-nl-kjpaw_psl.1.0.0.UPF: wavefunction(s)  3S 3P renormalized
               file Al.pbe-nl-kjpaw_psl.1.0.0.UPF: wavefunction(s)  3S 3P renormalized
               file Al.pbe-nl-kjpaw_psl.1.0.0.UPF: wavefunction(s)  3S 3P renormalized
               file Al.pbe-nl-kjpaw_psl.1.0.0.UPF: wavefunction(s)  3S 3P renormalized

     Subspace diagonalization in iterative solution of the eigenvalue problem:
     a serial algorithm will be used


     Parallelization info
     --------------------
     sticks:   dense  smooth     PW     G-vecs:    dense   smooth      PW
     Min         249     174     55                 5961     3486     593
     Max         250     175     56                 5963     3489     594
     Sum         997     697    221                23847    13949    2373



     bravais-lattice index     =            0
     lattice parameter (alat)  =       7.6300  a.u.
     unit-cell volume          =     499.6589 (a.u.)^3
     number of atoms/cell      =            4
     number of atomic types    =            4
     number of electrons       =        12.00
     number of Kohn-Sham states=           10
     kinetic-energy cutoff     =      35.0000  Ry
     charge density cutoff     =     200.0000  Ry
     convergence threshold     =      1.0E-06
     mixing beta               =       0.3000
     number of iterations used =           10  TF        mixing
     Exchange-correlation      =  SLA  PW   PBX  PBC ( 1  4  3  4 0 0)

     celldm(1)=   7.630000  celldm(2)=   0.000000  celldm(3)=   0.000000
     celldm(4)=   0.000000  celldm(5)=   0.000000  celldm(6)=   0.000000

     crystal axes: (cart. coord. in units of alat)
               a(1) = (   1.040000   0.000000   0.000000 )  
               a(2) = (   0.000000   1.040000   0.000000 )  
               a(3) = (   0.000000   0.000000   1.040000 )  

     reciprocal axes: (cart. coord. in units 2 pi/alat)
               b(1) = (  0.961538  0.000000  0.000000 )  
               b(2) = (  0.000000  0.961538  0.000000 )  
               b(3) = (  0.000000  0.000000  0.961538 )  


     PseudoPot. # 1 for Al read from file:
     /home/ben/espresso/pp/Al.pbe-nl-kjpaw_psl.1.0.0.UPF
     MD5 check sum: 339dbea23cf3ab9a065ad45c0f9085d7
     Pseudo is Projector augmented-wave + core cor, Zval =  3.0
     Generated using "atomic" code by A. Dal Corso  v.5.1
     Shape of augmentation charge: PSQ
     Using radial grid of 1135 points,  4 beta functions with: 
                l(1) =   0
                l(2) =   0
                l(3) =   1
                l(4) =   1
     Q(r) pseudized with 0 coefficients 


     PseudoPot. # 2 for Al read from file:
     /home/ben/espresso/pp/Al.pbe-nl-kjpaw_psl.1.0.0.UPF
     MD5 check sum: 339dbea23cf3ab9a065ad45c0f9085d7
     Pseudo is Projector augmented-wave + core cor, Zval =  3.0
     Generated using "atomic" code by A. Dal Corso  v.5.1
     Shape of augmentation charge: PSQ
     Using radial grid of 1135 points,  4 beta functions with: 
                l(1) =   0
                l(2) =   0
                l(3) =   1
                l(4) =   1
     Q(r) pseudized with 0 coefficients 


     PseudoPot. # 3 for Al read from file:
     /home/ben/espresso/pp/Al.pbe-nl-kjpaw_psl.1.0.0.UPF
     MD5 check sum: 339dbea23cf3ab9a065ad45c0f9085d7
     Pseudo is Projector augmented-wave + core cor, Zval =  3.0
     Generated using "atomic" code by A. Dal Corso  v.5.1
     Shape of augmentation charge: PSQ
     Using radial grid of 1135 points,  4 beta functions with: 
                l(1) =   0
                l(2) =   0
                l(3) =   1
                l(4) =   1
     Q(r) pseudized with 0 coefficients 


     PseudoPot. # 4 for Al read from file:
     /home/ben/espresso/pp/Al.pbe-nl-kjpaw_psl.1.0.0.UPF
     MD5 check sum: 339dbea23cf3ab9a065ad45c0f9085d7
     Pseudo is Projector augmented-wave + core cor, Zval =  3.0
     Generated using "atomic" code by A. Dal Corso  v.5.1
     Shape of augmentation charge: PSQ
     Using radial grid of 1135 points,  4 beta functions with: 
                l(1) =   0
                l(2) =   0
                l(3) =   1
                l(4) =   1
     Q(r) pseudized with 0 coefficients 


     atomic species   valence    mass     pseudopotential
        Al1            3.00    26.98200     Al( 1.00)
        Al2            3.00    26.98200     Al( 1.00)
        Al3            3.00    26.98200     Al( 1.00)
        Al4            3.00    26.98200     Al( 1.00)

      8 Sym. Ops., with inversion, found



   Cartesian axes

     site n.     atom                  positions (alat units)
         1           Al1 tau(   1) = (   0.0000000   0.0000000   0.0000000  )
         2           Al2 tau(   2) = (   0.5200000   0.5200000   0.0000000  )
         3           Al3 tau(   3) = (   0.5200000   0.0000000   0.5200000  )
         4           Al4 tau(   4) = (   0.0000000   0.5200000   0.5200000  )

     number of k points=   125  Marzari-Vanderbilt smearing, width (Ry)=  0.0200

     Number of k-points >= 100: set verbosity='high' to print them.

     Dense  grid:    23847 G-vectors     FFT dimensions: (  36,  36,  36)

     Smooth grid:    13949 G-vectors     FFT dimensions: (  30,  30,  30)

     Estimated max dynamical RAM per process >      12.99Mb

     Estimated total allocated dynamical RAM >      51.96Mb

     Initial potential from superposition of free atoms

     starting charge   11.99084, renormalised to   12.00000
     Starting wfc are   16 randomized atomic wfcs
     Checking if some PAW data can be deallocated... 

     total cpu time spent up to now is       10.5 secs

     per-process dynamical memory:    22.1 Mb

     Self-consistent Calculation

     iteration #  1     ecut=    35.00 Ry     beta=0.30
     Davidson diagonalization with overlap
     ethr =  1.00E-02,  avg # of iterations =  3.2

     Threshold (ethr) on eigenvalues was too large:
     Diagonalizing with lowered threshold

     Davidson diagonalization with overlap
     ethr =  1.96E-04,  avg # of iterations =  4.1

     total cpu time spent up to now is       18.2 secs

     total energy              =    -158.00071265 Ry
     Harris-Foulkes estimate   =    -158.00270355 Ry
     estimated scf accuracy    <       0.02252261 Ry

     iteration #  2     ecut=    35.00 Ry     beta=0.30
     Davidson diagonalization with overlap
     ethr =  1.88E-04,  avg # of iterations =  1.0

     total cpu time spent up to now is       21.1 secs

     total energy              =    -157.99651615 Ry
     Harris-Foulkes estimate   =    -158.00084685 Ry
     estimated scf accuracy    <       0.01407532 Ry

     iteration #  3     ecut=    35.00 Ry     beta=0.30
     Davidson diagonalization with overlap
     ethr =  1.17E-04,  avg # of iterations =  1.0

     total cpu time spent up to now is       23.8 secs

     total energy              =    -157.99684000 Ry
     Harris-Foulkes estimate   =    -157.99683886 Ry
     estimated scf accuracy    <       0.00003514 Ry

     iteration #  4     ecut=    35.00 Ry     beta=0.30
     Davidson diagonalization with overlap
     ethr =  2.93E-07,  avg # of iterations =  4.1

     total cpu time spent up to now is       38.4 secs

     total energy              =    -157.99691314 Ry
     Harris-Foulkes estimate   =    -157.99690649 Ry
     estimated scf accuracy    <       0.00001752 Ry

     iteration #  5     ecut=    35.00 Ry     beta=0.30
     Davidson diagonalization with overlap
     ethr =  1.46E-07,  avg # of iterations =  1.0

     total cpu time spent up to now is       41.1 secs

     total energy              =    -157.99691117 Ry
     Harris-Foulkes estimate   =    -157.99691424 Ry
     estimated scf accuracy    <       0.00000684 Ry

     iteration #  6     ecut=    35.00 Ry     beta=0.30
     Davidson diagonalization with overlap
     ethr =  5.70E-08,  avg # of iterations =  1.9

     total cpu time spent up to now is       44.2 secs

     End of self-consistent calculation

     Number of k-points >= 100: set verbosity='high' to print the bands.

     the Fermi energy is     6.7921 ev

!    total energy              =    -157.99691161 Ry
     Harris-Foulkes estimate   =    -157.99691193 Ry
     estimated scf accuracy    <       0.00000008 Ry

     total all-electron energy =     -1942.568039 Ry

     The total energy is the sum of the following terms:

     one-electron contribution =      11.58348393 Ry
     hartree contribution      =       0.02539199 Ry
     xc contribution           =     -10.12835990 Ry
     ewald contribution        =     -20.80036228 Ry
     one-center paw contrib.   =    -138.67670003 Ry
     smearing contrib. (-TS)   =      -0.00036531 Ry

     convergence has been achieved in   6 iterations

     Forces acting on atoms (Ry/au):

     atom    1 type  1   force =     0.00000000    0.00000000    0.00000000
     atom    2 type  2   force =     0.00000000    0.00000000    0.00000000
     atom    3 type  3   force =     0.00000000    0.00000000    0.00000000
     atom    4 type  4   force =     0.00000000    0.00000000    0.00000000

     Total force =     0.000000     Total SCF correction =     0.000000


     entering subroutine stress ...

          total   stress  (Ry/bohr**3)                   (kbar)     P=  -68.68
  -0.00046690   0.00000000   0.00000000        -68.68      0.00      0.00
   0.00000000  -0.00046691   0.00000000          0.00    -68.68      0.00
   0.00000000   0.00000000  -0.00046691          0.00      0.00    -68.68


     Writing output data file template.save

     init_run     :      7.00s CPU      7.28s WALL (       1 calls)
     electrons    :     32.86s CPU     33.76s WALL (       1 calls)
     forces       :      0.32s CPU      0.32s WALL (       1 calls)
     stress       :      0.88s CPU      0.89s WALL (       1 calls)

     Called by init_run:
     wfcinit      :      5.22s CPU      5.41s WALL (       1 calls)
     potinit      :      0.35s CPU      0.40s WALL (       1 calls)

     Called by electrons:
     c_bands      :     27.63s CPU     28.40s WALL (       7 calls)
     sum_band     :      4.63s CPU      4.76s WALL (       7 calls)
     v_of_rho     :      0.10s CPU      0.11s WALL (       7 calls)
     newd         :      0.14s CPU      0.17s WALL (       7 calls)
     PAW_pot      :      0.61s CPU      0.64s WALL (       7 calls)
     mix_rho      :      0.01s CPU      0.01s WALL (       7 calls)

     Called by c_bands:
     init_us_2    :      0.74s CPU      0.74s WALL (    2125 calls)
     cegterg      :     26.82s CPU     27.58s WALL (     875 calls)

     Called by sum_band:
     sum_band:bec :      0.01s CPU      0.01s WALL (     875 calls)
     addusdens    :      0.16s CPU      0.17s WALL (       7 calls)

     Called by *egterg:
     h_psi        :     27.67s CPU     28.47s WALL (    3033 calls)
     s_psi        :      0.58s CPU      0.56s WALL (    3033 calls)
     g_psi        :      0.04s CPU      0.07s WALL (    2033 calls)
     cdiaghg      :      1.07s CPU      1.08s WALL (    2783 calls)

     Called by h_psi:
     h_psi:pot    :     27.60s CPU     28.39s WALL (    3033 calls)
     h_psi:calbec :      0.79s CPU      0.84s WALL (    3033 calls)
     vloc_psi     :     26.19s CPU     26.94s WALL (    3033 calls)
     add_vuspsi   :      0.61s CPU      0.60s WALL (    3033 calls)

     General routines
     calbec       :      1.18s CPU      1.23s WALL (    4533 calls)
     fft          :      0.14s CPU      0.14s WALL (     137 calls)
     ffts         :      0.02s CPU      0.01s WALL (      14 calls)
     fftw         :     28.66s CPU     29.53s WALL (   57282 calls)
     interpolate  :      0.04s CPU      0.02s WALL (      14 calls)
     davcio       :      0.00s CPU      0.01s WALL (     125 calls)

     Parallel routines
     fft_scatter  :      6.30s CPU      6.29s WALL (   57433 calls)

     PWSCF        :    44.33s CPU        45.76s WALL


   This run was terminated on:  10:56:50  30May2017            

=------------------------------------------------------------------------------=
   JOB DONE.
=------------------------------------------------------------------------------=
