
     Program PWSCF v.6.0 (svn rev. 13079) starts on 30May2017 at 10:48:59 

     This program is part of the open-source Quantum ESPRESSO suite
     for quantum simulation of materials; please cite
         "P. Giannozzi et al., J. Phys.:Condens. Matter 21 395502 (2009);
          URL http://www.quantum-espresso.org", 
     in publications or presentations arising from this work. More details at
     http://www.quantum-espresso.org/quote

     Parallel version (MPI), running on     4 processors
     R & G space division:  proc/nbgrp/npool/nimage =       4
     Waiting for input...
     Reading input from standard input
Warning: card &IONS ignored
Warning: card ION_DYNAMICS='BFGS', ignored
Warning: card / ignored
Warning: card &CELL ignored
Warning: card CELL_DYNAMICS='BFGS', ignored
Warning: card PRESS = 0.0, ignored
Warning: card CELL_FACTOR = 2.0, ignored
Warning: card / ignored

     Current dimensions of program PWSCF are:
     Max number of different atomic species (ntypx) = 10
     Max number of k-points (npk) =  40000
     Max angular momentum in pseudopotentials (lmaxx) =  3
               file Al.pbe-nl-kjpaw_psl.1.0.0.UPF: wavefunction(s)  3S 3P renormalized
               file Al.pbe-nl-kjpaw_psl.1.0.0.UPF: wavefunction(s)  3S 3P renormalized
               file Al.pbe-nl-kjpaw_psl.1.0.0.UPF: wavefunction(s)  3S 3P renormalized
               file Al.pbe-nl-kjpaw_psl.1.0.0.UPF: wavefunction(s)  3S 3P renormalized

     Subspace diagonalization in iterative solution of the eigenvalue problem:
     a serial algorithm will be used


     Parallelization info
     --------------------
     sticks:   dense  smooth     PW     G-vecs:    dense   smooth      PW
     Min         237     166     49                 5469     3222     527
     Max         238     167     50                 5472     3225     528
     Sum         949     665    197                21879    12893    2109



     bravais-lattice index     =            0
     lattice parameter (alat)  =       7.6300  a.u.
     unit-cell volume          =     457.6545 (a.u.)^3
     number of atoms/cell      =            4
     number of atomic types    =            4
     number of electrons       =        12.00
     number of Kohn-Sham states=           10
     kinetic-energy cutoff     =      35.0000  Ry
     charge density cutoff     =     200.0000  Ry
     convergence threshold     =      1.0E-06
     mixing beta               =       0.3000
     number of iterations used =           10  TF        mixing
     Exchange-correlation      =  SLA  PW   PBX  PBC ( 1  4  3  4 0 0)

     celldm(1)=   7.630000  celldm(2)=   0.000000  celldm(3)=   0.000000
     celldm(4)=   0.000000  celldm(5)=   0.000000  celldm(6)=   0.000000

     crystal axes: (cart. coord. in units of alat)
               a(1) = (   1.010000   0.000000   0.000000 )  
               a(2) = (   0.000000   1.010000   0.000000 )  
               a(3) = (   0.000000   0.000000   1.010000 )  

     reciprocal axes: (cart. coord. in units 2 pi/alat)
               b(1) = (  0.990099  0.000000  0.000000 )  
               b(2) = (  0.000000  0.990099  0.000000 )  
               b(3) = (  0.000000  0.000000  0.990099 )  


     PseudoPot. # 1 for Al read from file:
     /home/ben/espresso/pp/Al.pbe-nl-kjpaw_psl.1.0.0.UPF
     MD5 check sum: 339dbea23cf3ab9a065ad45c0f9085d7
     Pseudo is Projector augmented-wave + core cor, Zval =  3.0
     Generated using "atomic" code by A. Dal Corso  v.5.1
     Shape of augmentation charge: PSQ
     Using radial grid of 1135 points,  4 beta functions with: 
                l(1) =   0
                l(2) =   0
                l(3) =   1
                l(4) =   1
     Q(r) pseudized with 0 coefficients 


     PseudoPot. # 2 for Al read from file:
     /home/ben/espresso/pp/Al.pbe-nl-kjpaw_psl.1.0.0.UPF
     MD5 check sum: 339dbea23cf3ab9a065ad45c0f9085d7
     Pseudo is Projector augmented-wave + core cor, Zval =  3.0
     Generated using "atomic" code by A. Dal Corso  v.5.1
     Shape of augmentation charge: PSQ
     Using radial grid of 1135 points,  4 beta functions with: 
                l(1) =   0
                l(2) =   0
                l(3) =   1
                l(4) =   1
     Q(r) pseudized with 0 coefficients 


     PseudoPot. # 3 for Al read from file:
     /home/ben/espresso/pp/Al.pbe-nl-kjpaw_psl.1.0.0.UPF
     MD5 check sum: 339dbea23cf3ab9a065ad45c0f9085d7
     Pseudo is Projector augmented-wave + core cor, Zval =  3.0
     Generated using "atomic" code by A. Dal Corso  v.5.1
     Shape of augmentation charge: PSQ
     Using radial grid of 1135 points,  4 beta functions with: 
                l(1) =   0
                l(2) =   0
                l(3) =   1
                l(4) =   1
     Q(r) pseudized with 0 coefficients 


     PseudoPot. # 4 for Al read from file:
     /home/ben/espresso/pp/Al.pbe-nl-kjpaw_psl.1.0.0.UPF
     MD5 check sum: 339dbea23cf3ab9a065ad45c0f9085d7
     Pseudo is Projector augmented-wave + core cor, Zval =  3.0
     Generated using "atomic" code by A. Dal Corso  v.5.1
     Shape of augmentation charge: PSQ
     Using radial grid of 1135 points,  4 beta functions with: 
                l(1) =   0
                l(2) =   0
                l(3) =   1
                l(4) =   1
     Q(r) pseudized with 0 coefficients 


     atomic species   valence    mass     pseudopotential
        Al1            3.00    26.98200     Al( 1.00)
        Al2            3.00    26.98200     Al( 1.00)
        Al3            3.00    26.98200     Al( 1.00)
        Al4            3.00    26.98200     Al( 1.00)

      8 Sym. Ops., with inversion, found



   Cartesian axes

     site n.     atom                  positions (alat units)
         1           Al1 tau(   1) = (   0.0000000   0.0000000   0.0000000  )
         2           Al2 tau(   2) = (   0.5050000   0.5050000   0.0000000  )
         3           Al3 tau(   3) = (   0.5050000   0.0000000   0.5050000  )
         4           Al4 tau(   4) = (   0.0000000   0.5050000   0.5050000  )

     number of k points=   125  Marzari-Vanderbilt smearing, width (Ry)=  0.0200

     Number of k-points >= 100: set verbosity='high' to print them.

     Dense  grid:    21879 G-vectors     FFT dimensions: (  36,  36,  36)

     Smooth grid:    12893 G-vectors     FFT dimensions: (  30,  30,  30)

     Estimated max dynamical RAM per process >      11.99Mb

     Estimated total allocated dynamical RAM >      47.95Mb

     Initial potential from superposition of free atoms

     starting charge   11.99084, renormalised to   12.00000
     Starting wfc are   16 randomized atomic wfcs
     Checking if some PAW data can be deallocated... 

     total cpu time spent up to now is       13.7 secs

     per-process dynamical memory:    21.3 Mb

     Self-consistent Calculation

     iteration #  1     ecut=    35.00 Ry     beta=0.30
     Davidson diagonalization with overlap
     ethr =  1.00E-02,  avg # of iterations =  3.2

     Threshold (ethr) on eigenvalues was too large:
     Diagonalizing with lowered threshold

     Davidson diagonalization with overlap
     ethr =  1.96E-04,  avg # of iterations =  3.9

     total cpu time spent up to now is       24.3 secs

     total energy              =    -158.01425348 Ry
     Harris-Foulkes estimate   =    -158.01628103 Ry
     estimated scf accuracy    <       0.02267047 Ry

     iteration #  2     ecut=    35.00 Ry     beta=0.30
     Davidson diagonalization with overlap
     ethr =  1.89E-04,  avg # of iterations =  1.0

     total cpu time spent up to now is       32.6 secs

     total energy              =    -158.01001491 Ry
     Harris-Foulkes estimate   =    -158.01437138 Ry
     estimated scf accuracy    <       0.01413728 Ry

     iteration #  3     ecut=    35.00 Ry     beta=0.30
     Davidson diagonalization with overlap
     ethr =  1.18E-04,  avg # of iterations =  1.0

     total cpu time spent up to now is       41.9 secs

     total energy              =    -158.01029505 Ry
     Harris-Foulkes estimate   =    -158.01028414 Ry
     estimated scf accuracy    <       0.00003585 Ry

     iteration #  4     ecut=    35.00 Ry     beta=0.30
     Davidson diagonalization with overlap
     ethr =  2.99E-07,  avg # of iterations =  3.8

     total cpu time spent up to now is       47.5 secs

     total energy              =    -158.01037156 Ry
     Harris-Foulkes estimate   =    -158.01035690 Ry
     estimated scf accuracy    <       0.00001754 Ry

     iteration #  5     ecut=    35.00 Ry     beta=0.30
     Davidson diagonalization with overlap
     ethr =  1.46E-07,  avg # of iterations =  1.0

     total cpu time spent up to now is       52.7 secs

     total energy              =    -158.01036957 Ry
     Harris-Foulkes estimate   =    -158.01037248 Ry
     estimated scf accuracy    <       0.00000649 Ry

     iteration #  6     ecut=    35.00 Ry     beta=0.30
     Davidson diagonalization with overlap
     ethr =  5.41E-08,  avg # of iterations =  2.0

     total cpu time spent up to now is       65.9 secs

     End of self-consistent calculation

     Number of k-points >= 100: set verbosity='high' to print the bands.

     the Fermi energy is     7.6783 ev

!    total energy              =    -158.01037021 Ry
     Harris-Foulkes estimate   =    -158.01037041 Ry
     estimated scf accuracy    <       0.00000006 Ry

     total all-electron energy =     -1942.581498 Ry

     The total energy is the sum of the following terms:

     one-electron contribution =      12.39030552 Ry
     hartree contribution      =       0.02385739 Ry
     xc contribution           =     -10.30551571 Ry
     ewald contribution        =     -21.41819482 Ry
     one-center paw contrib.   =    -138.70025624 Ry
     smearing contrib. (-TS)   =      -0.00056635 Ry

     convergence has been achieved in   6 iterations

     Forces acting on atoms (Ry/au):

     atom    1 type  1   force =     0.00000000    0.00000000    0.00000000
     atom    2 type  2   force =     0.00000000    0.00000000    0.00000000
     atom    3 type  3   force =     0.00000000    0.00000000    0.00000000
     atom    4 type  4   force =     0.00000000    0.00000000    0.00000000

     Total force =     0.000000     Total SCF correction =     0.000000


     entering subroutine stress ...

          total   stress  (Ry/bohr**3)                   (kbar)     P=  -21.89
  -0.00014884   0.00000000   0.00000000        -21.89      0.00      0.00
   0.00000000  -0.00014884   0.00000000          0.00    -21.89      0.00
   0.00000000   0.00000000  -0.00014884          0.00      0.00    -21.89


     Writing output data file template.save

     init_run     :      8.85s CPU     10.49s WALL (       1 calls)
     electrons    :     46.86s CPU     52.29s WALL (       1 calls)
     forces       :      0.36s CPU      0.37s WALL (       1 calls)
     stress       :      0.90s CPU      0.90s WALL (       1 calls)

     Called by init_run:
     wfcinit      :      6.98s CPU      8.02s WALL (       1 calls)
     potinit      :      0.42s CPU      0.43s WALL (       1 calls)

     Called by electrons:
     c_bands      :     38.93s CPU     43.28s WALL (       7 calls)
     sum_band     :      6.89s CPU      7.88s WALL (       7 calls)
     v_of_rho     :      0.18s CPU      0.19s WALL (       7 calls)
     newd         :      0.25s CPU      0.30s WALL (       7 calls)
     PAW_pot      :      0.97s CPU      1.01s WALL (       7 calls)
     mix_rho      :      0.01s CPU      0.02s WALL (       7 calls)

     Called by c_bands:
     init_us_2    :      0.85s CPU      0.92s WALL (    2125 calls)
     cegterg      :     37.77s CPU     41.94s WALL (     875 calls)

     Called by sum_band:
     sum_band:bec :      0.01s CPU      0.02s WALL (     875 calls)
     addusdens    :      0.18s CPU      0.25s WALL (       7 calls)

     Called by *egterg:
     h_psi        :     39.40s CPU     43.98s WALL (    3000 calls)
     s_psi        :      0.64s CPU      0.71s WALL (    3000 calls)
     g_psi        :      0.08s CPU      0.08s WALL (    2000 calls)
     cdiaghg      :      1.13s CPU      1.32s WALL (    2750 calls)

     Called by h_psi:
     h_psi:pot    :     39.31s CPU     43.89s WALL (    3000 calls)
     h_psi:calbec :      1.21s CPU      1.37s WALL (    3000 calls)
     vloc_psi     :     37.36s CPU     41.71s WALL (    3000 calls)
     add_vuspsi   :      0.72s CPU      0.77s WALL (    3000 calls)

     General routines
     calbec       :      1.90s CPU      2.11s WALL (    4500 calls)
     fft          :      0.24s CPU      0.28s WALL (     137 calls)
     ffts         :      0.02s CPU      0.02s WALL (      14 calls)
     fftw         :     41.54s CPU     46.58s WALL (   57330 calls)
     interpolate  :      0.04s CPU      0.04s WALL (      14 calls)
     davcio       :      0.00s CPU      0.01s WALL (     125 calls)

     Parallel routines
     fft_scatter  :     14.08s CPU     16.18s WALL (   57481 calls)

     PWSCF        :  0m59.66s CPU     1m 7.58s WALL


   This run was terminated on:  10:50: 6  30May2017            

=------------------------------------------------------------------------------=
   JOB DONE.
=------------------------------------------------------------------------------=
