
     Program PWSCF v.6.0 (svn rev. 13079) starts on 30May2017 at 10:53:51 

     This program is part of the open-source Quantum ESPRESSO suite
     for quantum simulation of materials; please cite
         "P. Giannozzi et al., J. Phys.:Condens. Matter 21 395502 (2009);
          URL http://www.quantum-espresso.org", 
     in publications or presentations arising from this work. More details at
     http://www.quantum-espresso.org/quote

     Parallel version (MPI), running on     4 processors
     R & G space division:  proc/nbgrp/npool/nimage =       4
     Waiting for input...
     Reading input from standard input
Warning: card &IONS ignored
Warning: card ION_DYNAMICS='BFGS', ignored
Warning: card / ignored
Warning: card &CELL ignored
Warning: card CELL_DYNAMICS='BFGS', ignored
Warning: card PRESS = 0.0, ignored
Warning: card CELL_FACTOR = 2.0, ignored
Warning: card / ignored

     Current dimensions of program PWSCF are:
     Max number of different atomic species (ntypx) = 10
     Max number of k-points (npk) =  40000
     Max angular momentum in pseudopotentials (lmaxx) =  3
               file Al.pbe-nl-kjpaw_psl.1.0.0.UPF: wavefunction(s)  3S 3P renormalized
               file Al.pbe-nl-kjpaw_psl.1.0.0.UPF: wavefunction(s)  3S 3P renormalized
               file Al.pbe-nl-kjpaw_psl.1.0.0.UPF: wavefunction(s)  3S 3P renormalized
               file Al.pbe-nl-kjpaw_psl.1.0.0.UPF: wavefunction(s)  3S 3P renormalized

     Subspace diagonalization in iterative solution of the eigenvalue problem:
     a serial algorithm will be used


     Parallelization info
     --------------------
     sticks:   dense  smooth     PW     G-vecs:    dense   smooth      PW
     Min         243     170     53                 5755     3402     575
     Max         244     171     54                 5759     3405     576
     Sum         973     681    213                23031    13613    2301



     bravais-lattice index     =            0
     lattice parameter (alat)  =       7.6300  a.u.
     unit-cell volume          =     485.3838 (a.u.)^3
     number of atoms/cell      =            4
     number of atomic types    =            4
     number of electrons       =        12.00
     number of Kohn-Sham states=           10
     kinetic-energy cutoff     =      35.0000  Ry
     charge density cutoff     =     200.0000  Ry
     convergence threshold     =      1.0E-06
     mixing beta               =       0.3000
     number of iterations used =           10  TF        mixing
     Exchange-correlation      =  SLA  PW   PBX  PBC ( 1  4  3  4 0 0)

     celldm(1)=   7.630000  celldm(2)=   0.000000  celldm(3)=   0.000000
     celldm(4)=   0.000000  celldm(5)=   0.000000  celldm(6)=   0.000000

     crystal axes: (cart. coord. in units of alat)
               a(1) = (   1.030000   0.000000   0.000000 )  
               a(2) = (   0.000000   1.030000   0.000000 )  
               a(3) = (   0.000000   0.000000   1.030000 )  

     reciprocal axes: (cart. coord. in units 2 pi/alat)
               b(1) = (  0.970874  0.000000  0.000000 )  
               b(2) = (  0.000000  0.970874  0.000000 )  
               b(3) = (  0.000000  0.000000  0.970874 )  


     PseudoPot. # 1 for Al read from file:
     /home/ben/espresso/pp/Al.pbe-nl-kjpaw_psl.1.0.0.UPF
     MD5 check sum: 339dbea23cf3ab9a065ad45c0f9085d7
     Pseudo is Projector augmented-wave + core cor, Zval =  3.0
     Generated using "atomic" code by A. Dal Corso  v.5.1
     Shape of augmentation charge: PSQ
     Using radial grid of 1135 points,  4 beta functions with: 
                l(1) =   0
                l(2) =   0
                l(3) =   1
                l(4) =   1
     Q(r) pseudized with 0 coefficients 


     PseudoPot. # 2 for Al read from file:
     /home/ben/espresso/pp/Al.pbe-nl-kjpaw_psl.1.0.0.UPF
     MD5 check sum: 339dbea23cf3ab9a065ad45c0f9085d7
     Pseudo is Projector augmented-wave + core cor, Zval =  3.0
     Generated using "atomic" code by A. Dal Corso  v.5.1
     Shape of augmentation charge: PSQ
     Using radial grid of 1135 points,  4 beta functions with: 
                l(1) =   0
                l(2) =   0
                l(3) =   1
                l(4) =   1
     Q(r) pseudized with 0 coefficients 


     PseudoPot. # 3 for Al read from file:
     /home/ben/espresso/pp/Al.pbe-nl-kjpaw_psl.1.0.0.UPF
     MD5 check sum: 339dbea23cf3ab9a065ad45c0f9085d7
     Pseudo is Projector augmented-wave + core cor, Zval =  3.0
     Generated using "atomic" code by A. Dal Corso  v.5.1
     Shape of augmentation charge: PSQ
     Using radial grid of 1135 points,  4 beta functions with: 
                l(1) =   0
                l(2) =   0
                l(3) =   1
                l(4) =   1
     Q(r) pseudized with 0 coefficients 


     PseudoPot. # 4 for Al read from file:
     /home/ben/espresso/pp/Al.pbe-nl-kjpaw_psl.1.0.0.UPF
     MD5 check sum: 339dbea23cf3ab9a065ad45c0f9085d7
     Pseudo is Projector augmented-wave + core cor, Zval =  3.0
     Generated using "atomic" code by A. Dal Corso  v.5.1
     Shape of augmentation charge: PSQ
     Using radial grid of 1135 points,  4 beta functions with: 
                l(1) =   0
                l(2) =   0
                l(3) =   1
                l(4) =   1
     Q(r) pseudized with 0 coefficients 


     atomic species   valence    mass     pseudopotential
        Al1            3.00    26.98200     Al( 1.00)
        Al2            3.00    26.98200     Al( 1.00)
        Al3            3.00    26.98200     Al( 1.00)
        Al4            3.00    26.98200     Al( 1.00)

      8 Sym. Ops., with inversion, found



   Cartesian axes

     site n.     atom                  positions (alat units)
         1           Al1 tau(   1) = (   0.0000000   0.0000000   0.0000000  )
         2           Al2 tau(   2) = (   0.5150000   0.5150000   0.0000000  )
         3           Al3 tau(   3) = (   0.5150000   0.0000000   0.5150000  )
         4           Al4 tau(   4) = (   0.0000000   0.5150000   0.5150000  )

     number of k points=   125  Marzari-Vanderbilt smearing, width (Ry)=  0.0200

     Number of k-points >= 100: set verbosity='high' to print them.

     Dense  grid:    23031 G-vectors     FFT dimensions: (  36,  36,  36)

     Smooth grid:    13613 G-vectors     FFT dimensions: (  30,  30,  30)

     Estimated max dynamical RAM per process >      12.63Mb

     Estimated total allocated dynamical RAM >      50.54Mb

     Initial potential from superposition of free atoms

     starting charge   11.99084, renormalised to   12.00000
     Starting wfc are   16 randomized atomic wfcs
     Checking if some PAW data can be deallocated... 

     total cpu time spent up to now is        6.7 secs

     per-process dynamical memory:    21.8 Mb

     Self-consistent Calculation

     iteration #  1     ecut=    35.00 Ry     beta=0.30
     Davidson diagonalization with overlap
     ethr =  1.00E-02,  avg # of iterations =  3.2

     Threshold (ethr) on eigenvalues was too large:
     Diagonalizing with lowered threshold

     Davidson diagonalization with overlap
     ethr =  1.96E-04,  avg # of iterations =  4.0

     total cpu time spent up to now is       28.9 secs

     total energy              =    -158.00676812 Ry
     Harris-Foulkes estimate   =    -158.00877333 Ry
     estimated scf accuracy    <       0.02260986 Ry

     iteration #  2     ecut=    35.00 Ry     beta=0.30
     Davidson diagonalization with overlap
     ethr =  1.88E-04,  avg # of iterations =  1.0

     total cpu time spent up to now is       44.8 secs

     total energy              =    -158.00254794 Ry
     Harris-Foulkes estimate   =    -158.00689634 Ry
     estimated scf accuracy    <       0.01411845 Ry

     iteration #  3     ecut=    35.00 Ry     beta=0.30
     Davidson diagonalization with overlap
     ethr =  1.18E-04,  avg # of iterations =  1.0

     total cpu time spent up to now is       49.6 secs

     total energy              =    -158.00285741 Ry
     Harris-Foulkes estimate   =    -158.00285258 Ry
     estimated scf accuracy    <       0.00003546 Ry

     iteration #  4     ecut=    35.00 Ry     beta=0.30
     Davidson diagonalization with overlap
     ethr =  2.95E-07,  avg # of iterations =  3.9

     total cpu time spent up to now is       68.4 secs

     total energy              =    -158.00293344 Ry
     Harris-Foulkes estimate   =    -158.00292372 Ry
     estimated scf accuracy    <       0.00001759 Ry

     iteration #  5     ecut=    35.00 Ry     beta=0.30
     Davidson diagonalization with overlap
     ethr =  1.47E-07,  avg # of iterations =  1.0

     total cpu time spent up to now is       72.1 secs

     total energy              =    -158.00293134 Ry
     Harris-Foulkes estimate   =    -158.00293444 Ry
     estimated scf accuracy    <       0.00000684 Ry

     iteration #  6     ecut=    35.00 Ry     beta=0.30
     Davidson diagonalization with overlap
     ethr =  5.70E-08,  avg # of iterations =  2.0

     total cpu time spent up to now is       76.5 secs

     End of self-consistent calculation

     Number of k-points >= 100: set verbosity='high' to print the bands.

     the Fermi energy is     7.0780 ev

!    total energy              =    -158.00293184 Ry
     Harris-Foulkes estimate   =    -158.00293212 Ry
     estimated scf accuracy    <       0.00000007 Ry

     total all-electron energy =     -1942.574060 Ry

     The total energy is the sum of the following terms:

     one-electron contribution =      11.84469073 Ry
     hartree contribution      =       0.02435286 Ry
     xc contribution           =     -10.18549373 Ry
     ewald contribution        =     -21.00230755 Ry
     one-center paw contrib.   =    -138.68371086 Ry
     smearing contrib. (-TS)   =      -0.00046329 Ry

     convergence has been achieved in   6 iterations

     Forces acting on atoms (Ry/au):

     atom    1 type  1   force =     0.00000000    0.00000000    0.00000000
     atom    2 type  2   force =     0.00000000    0.00000000    0.00000000
     atom    3 type  3   force =     0.00000000    0.00000000    0.00000000
     atom    4 type  4   force =     0.00000000    0.00000000    0.00000000

     Total force =     0.000000     Total SCF correction =     0.000000


     entering subroutine stress ...

          total   stress  (Ry/bohr**3)                   (kbar)     P=  -55.66
  -0.00037835   0.00000000   0.00000000        -55.66      0.00      0.00
   0.00000000  -0.00037835   0.00000000          0.00    -55.66      0.00
   0.00000000   0.00000000  -0.00037835          0.00      0.00    -55.66


     Writing output data file template.save

     init_run     :      4.25s CPU      5.32s WALL (       1 calls)
     electrons    :     55.65s CPU     69.78s WALL (       1 calls)
     forces       :      0.36s CPU      0.37s WALL (       1 calls)
     stress       :      2.53s CPU      3.81s WALL (       1 calls)

     Called by init_run:
     wfcinit      :      3.68s CPU      4.61s WALL (       1 calls)
     potinit      :      0.12s CPU      0.15s WALL (       1 calls)

     Called by electrons:
     c_bands      :     49.80s CPU     63.18s WALL (       7 calls)
     sum_band     :      5.17s CPU      5.81s WALL (       7 calls)
     v_of_rho     :      0.12s CPU      0.13s WALL (       7 calls)
     newd         :      0.13s CPU      0.15s WALL (       7 calls)
     PAW_pot      :      0.50s CPU      0.61s WALL (       7 calls)
     mix_rho      :      0.01s CPU      0.02s WALL (       7 calls)

     Called by c_bands:
     init_us_2    :      0.63s CPU      0.88s WALL (    2125 calls)
     cegterg      :     48.58s CPU     61.62s WALL (     875 calls)

     Called by sum_band:
     sum_band:bec :      0.02s CPU      0.01s WALL (     875 calls)
     addusdens    :      0.15s CPU      0.19s WALL (       7 calls)

     Called by *egterg:
     h_psi        :     45.28s CPU     57.49s WALL (    3027 calls)
     s_psi        :      0.54s CPU      0.74s WALL (    3027 calls)
     g_psi        :      0.09s CPU      0.10s WALL (    2027 calls)
     cdiaghg      :      1.68s CPU      2.03s WALL (    2777 calls)

     Called by h_psi:
     h_psi:pot    :     45.19s CPU     57.41s WALL (    3027 calls)
     h_psi:calbec :      1.54s CPU      1.93s WALL (    3027 calls)
     vloc_psi     :     42.95s CPU     54.60s WALL (    3027 calls)
     add_vuspsi   :      0.68s CPU      0.85s WALL (    3027 calls)

     General routines
     calbec       :      2.77s CPU      3.55s WALL (    4527 calls)
     fft          :      0.15s CPU      0.18s WALL (     137 calls)
     ffts         :      0.01s CPU      0.01s WALL (      14 calls)
     fftw         :     45.71s CPU     57.61s WALL (   57278 calls)
     interpolate  :      0.02s CPU      0.02s WALL (      14 calls)
     davcio       :      0.01s CPU      0.01s WALL (     125 calls)

     Parallel routines
     fft_scatter  :     22.12s CPU     29.02s WALL (   57429 calls)

     PWSCF        :  1m 4.88s CPU     1m22.31s WALL


   This run was terminated on:  10:55:14  30May2017            

=------------------------------------------------------------------------------=
   JOB DONE.
=------------------------------------------------------------------------------=
