
     Program PWSCF v.6.0 (svn rev. 13079) starts on 30May2017 at 10:57:21 

     This program is part of the open-source Quantum ESPRESSO suite
     for quantum simulation of materials; please cite
         "P. Giannozzi et al., J. Phys.:Condens. Matter 21 395502 (2009);
          URL http://www.quantum-espresso.org", 
     in publications or presentations arising from this work. More details at
     http://www.quantum-espresso.org/quote

     Parallel version (MPI), running on     4 processors
     R & G space division:  proc/nbgrp/npool/nimage =       4
     Waiting for input...
     Reading input from standard input
Warning: card &IONS ignored
Warning: card ION_DYNAMICS='BFGS', ignored
Warning: card / ignored
Warning: card &CELL ignored
Warning: card CELL_DYNAMICS='BFGS', ignored
Warning: card PRESS = 0.0, ignored
Warning: card CELL_FACTOR = 2.0, ignored
Warning: card / ignored

     Current dimensions of program PWSCF are:
     Max number of different atomic species (ntypx) = 10
     Max number of k-points (npk) =  40000
     Max angular momentum in pseudopotentials (lmaxx) =  3
               file Al.pbe-nl-kjpaw_psl.1.0.0.UPF: wavefunction(s)  3S 3P renormalized
               file Al.pbe-nl-kjpaw_psl.1.0.0.UPF: wavefunction(s)  3S 3P renormalized
               file Al.pbe-nl-kjpaw_psl.1.0.0.UPF: wavefunction(s)  3S 3P renormalized
               file Al.pbe-nl-kjpaw_psl.1.0.0.UPF: wavefunction(s)  3S 3P renormalized

     Subspace diagonalization in iterative solution of the eigenvalue problem:
     a serial algorithm will be used


     Parallelization info
     --------------------
     sticks:   dense  smooth     PW     G-vecs:    dense   smooth      PW
     Min         257     179     55                 6143     3589     617
     Max         259     180     56                 6144     3592     618
     Sum        1033     717    221                24573    14363    2469



     bravais-lattice index     =            0
     lattice parameter (alat)  =       7.6300  a.u.
     unit-cell volume          =     514.2112 (a.u.)^3
     number of atoms/cell      =            4
     number of atomic types    =            4
     number of electrons       =        12.00
     number of Kohn-Sham states=           10
     kinetic-energy cutoff     =      35.0000  Ry
     charge density cutoff     =     200.0000  Ry
     convergence threshold     =      1.0E-06
     mixing beta               =       0.3000
     number of iterations used =           10  TF        mixing
     Exchange-correlation      =  SLA  PW   PBX  PBC ( 1  4  3  4 0 0)

     celldm(1)=   7.630000  celldm(2)=   0.000000  celldm(3)=   0.000000
     celldm(4)=   0.000000  celldm(5)=   0.000000  celldm(6)=   0.000000

     crystal axes: (cart. coord. in units of alat)
               a(1) = (   1.050000   0.000000   0.000000 )  
               a(2) = (   0.000000   1.050000   0.000000 )  
               a(3) = (   0.000000   0.000000   1.050000 )  

     reciprocal axes: (cart. coord. in units 2 pi/alat)
               b(1) = (  0.952381  0.000000  0.000000 )  
               b(2) = (  0.000000  0.952381  0.000000 )  
               b(3) = (  0.000000  0.000000  0.952381 )  


     PseudoPot. # 1 for Al read from file:
     /home/ben/espresso/pp/Al.pbe-nl-kjpaw_psl.1.0.0.UPF
     MD5 check sum: 339dbea23cf3ab9a065ad45c0f9085d7
     Pseudo is Projector augmented-wave + core cor, Zval =  3.0
     Generated using "atomic" code by A. Dal Corso  v.5.1
     Shape of augmentation charge: PSQ
     Using radial grid of 1135 points,  4 beta functions with: 
                l(1) =   0
                l(2) =   0
                l(3) =   1
                l(4) =   1
     Q(r) pseudized with 0 coefficients 


     PseudoPot. # 2 for Al read from file:
     /home/ben/espresso/pp/Al.pbe-nl-kjpaw_psl.1.0.0.UPF
     MD5 check sum: 339dbea23cf3ab9a065ad45c0f9085d7
     Pseudo is Projector augmented-wave + core cor, Zval =  3.0
     Generated using "atomic" code by A. Dal Corso  v.5.1
     Shape of augmentation charge: PSQ
     Using radial grid of 1135 points,  4 beta functions with: 
                l(1) =   0
                l(2) =   0
                l(3) =   1
                l(4) =   1
     Q(r) pseudized with 0 coefficients 


     PseudoPot. # 3 for Al read from file:
     /home/ben/espresso/pp/Al.pbe-nl-kjpaw_psl.1.0.0.UPF
     MD5 check sum: 339dbea23cf3ab9a065ad45c0f9085d7
     Pseudo is Projector augmented-wave + core cor, Zval =  3.0
     Generated using "atomic" code by A. Dal Corso  v.5.1
     Shape of augmentation charge: PSQ
     Using radial grid of 1135 points,  4 beta functions with: 
                l(1) =   0
                l(2) =   0
                l(3) =   1
                l(4) =   1
     Q(r) pseudized with 0 coefficients 


     PseudoPot. # 4 for Al read from file:
     /home/ben/espresso/pp/Al.pbe-nl-kjpaw_psl.1.0.0.UPF
     MD5 check sum: 339dbea23cf3ab9a065ad45c0f9085d7
     Pseudo is Projector augmented-wave + core cor, Zval =  3.0
     Generated using "atomic" code by A. Dal Corso  v.5.1
     Shape of augmentation charge: PSQ
     Using radial grid of 1135 points,  4 beta functions with: 
                l(1) =   0
                l(2) =   0
                l(3) =   1
                l(4) =   1
     Q(r) pseudized with 0 coefficients 


     atomic species   valence    mass     pseudopotential
        Al1            3.00    26.98200     Al( 1.00)
        Al2            3.00    26.98200     Al( 1.00)
        Al3            3.00    26.98200     Al( 1.00)
        Al4            3.00    26.98200     Al( 1.00)

      8 Sym. Ops., with inversion, found



   Cartesian axes

     site n.     atom                  positions (alat units)
         1           Al1 tau(   1) = (   0.0000000   0.0000000   0.0000000  )
         2           Al2 tau(   2) = (   0.5250000   0.5250000   0.0000000  )
         3           Al3 tau(   3) = (   0.5250000   0.0000000   0.5250000  )
         4           Al4 tau(   4) = (   0.0000000   0.5250000   0.5250000  )

     number of k points=   125  Marzari-Vanderbilt smearing, width (Ry)=  0.0200

     Number of k-points >= 100: set verbosity='high' to print them.

     Dense  grid:    24573 G-vectors     FFT dimensions: (  40,  40,  40)

     Smooth grid:    14363 G-vectors     FFT dimensions: (  32,  32,  32)

     Estimated max dynamical RAM per process >      13.65Mb

     Estimated total allocated dynamical RAM >      54.60Mb

     Initial potential from superposition of free atoms

     starting charge   11.99084, renormalised to   12.00000
     Starting wfc are   16 randomized atomic wfcs
     Checking if some PAW data can be deallocated... 

     total cpu time spent up to now is        2.8 secs

     per-process dynamical memory:    23.0 Mb

     Self-consistent Calculation

     iteration #  1     ecut=    35.00 Ry     beta=0.30
     Davidson diagonalization with overlap
     ethr =  1.00E-02,  avg # of iterations =  3.1

     Threshold (ethr) on eigenvalues was too large:
     Diagonalizing with lowered threshold

     Davidson diagonalization with overlap
     ethr =  1.95E-04,  avg # of iterations =  4.0

     total cpu time spent up to now is       18.0 secs

     total energy              =    -157.99334619 Ry
     Harris-Foulkes estimate   =    -157.99532182 Ry
     estimated scf accuracy    <       0.02240135 Ry

     iteration #  2     ecut=    35.00 Ry     beta=0.30
     Davidson diagonalization with overlap
     ethr =  1.87E-04,  avg # of iterations =  1.0

     total cpu time spent up to now is       19.8 secs

     total energy              =    -157.98918797 Ry
     Harris-Foulkes estimate   =    -157.99349156 Ry
     estimated scf accuracy    <       0.01400925 Ry

     iteration #  3     ecut=    35.00 Ry     beta=0.30
     Davidson diagonalization with overlap
     ethr =  1.17E-04,  avg # of iterations =  1.0

     total cpu time spent up to now is       21.7 secs

     total energy              =    -157.98952563 Ry
     Harris-Foulkes estimate   =    -157.98952837 Ry
     estimated scf accuracy    <       0.00003473 Ry

     iteration #  4     ecut=    35.00 Ry     beta=0.30
     Davidson diagonalization with overlap
     ethr =  2.89E-07,  avg # of iterations =  4.2

     total cpu time spent up to now is       25.3 secs

     total energy              =    -157.98959487 Ry
     Harris-Foulkes estimate   =    -157.98959157 Ry
     estimated scf accuracy    <       0.00001748 Ry

     iteration #  5     ecut=    35.00 Ry     beta=0.30
     Davidson diagonalization with overlap
     ethr =  1.46E-07,  avg # of iterations =  1.0

     total cpu time spent up to now is       27.2 secs

     total energy              =    -157.98959316 Ry
     Harris-Foulkes estimate   =    -157.98959607 Ry
     estimated scf accuracy    <       0.00000667 Ry

     iteration #  6     ecut=    35.00 Ry     beta=0.30
     Davidson diagonalization with overlap
     ethr =  5.56E-08,  avg # of iterations =  2.0

     total cpu time spent up to now is       29.2 secs

     End of self-consistent calculation

     Number of k-points >= 100: set verbosity='high' to print the bands.

     the Fermi energy is     6.5159 ev

!    total energy              =    -157.98959357 Ry
     Harris-Foulkes estimate   =    -157.98959394 Ry
     estimated scf accuracy    <       0.00000009 Ry

     total all-electron energy =     -1942.560721 Ry

     The total energy is the sum of the following terms:

     one-electron contribution =      11.32941730 Ry
     hartree contribution      =       0.02698943 Ry
     xc contribution           =     -10.07306008 Ry
     ewald contribution        =     -20.60226359 Ry
     one-center paw contrib.   =    -138.67042821 Ry
     smearing contrib. (-TS)   =      -0.00024842 Ry

     convergence has been achieved in   6 iterations

     Forces acting on atoms (Ry/au):

     atom    1 type  1   force =     0.00000000    0.00000000    0.00000000
     atom    2 type  2   force =     0.00000000    0.00000000    0.00000000
     atom    3 type  3   force =     0.00000000    0.00000000    0.00000000
     atom    4 type  4   force =     0.00000000    0.00000000    0.00000000

     Total force =     0.000000     Total SCF correction =     0.000000


     entering subroutine stress ...

          total   stress  (Ry/bohr**3)                   (kbar)     P=  -79.56
  -0.00054086   0.00000000   0.00000000        -79.56      0.00      0.00
   0.00000000  -0.00054086   0.00000000          0.00    -79.56      0.00
   0.00000000   0.00000000  -0.00054086          0.00      0.00    -79.56


     Writing output data file template.save

     init_run     :      1.67s CPU      1.71s WALL (       1 calls)
     electrons    :     25.58s CPU     26.39s WALL (       1 calls)
     forces       :      0.31s CPU      0.32s WALL (       1 calls)
     stress       :      1.30s CPU      1.33s WALL (       1 calls)

     Called by init_run:
     wfcinit      :      1.08s CPU      1.10s WALL (       1 calls)
     potinit      :      0.12s CPU      0.12s WALL (       1 calls)

     Called by electrons:
     c_bands      :     21.62s CPU     22.38s WALL (       7 calls)
     sum_band     :      3.30s CPU      3.35s WALL (       7 calls)
     v_of_rho     :      0.13s CPU      0.12s WALL (       7 calls)
     newd         :      0.12s CPU      0.13s WALL (       7 calls)
     PAW_pot      :      0.48s CPU      0.49s WALL (       7 calls)
     mix_rho      :      0.01s CPU      0.01s WALL (       7 calls)

     Called by c_bands:
     init_us_2    :      0.80s CPU      0.79s WALL (    2125 calls)
     cegterg      :     20.67s CPU     21.36s WALL (     875 calls)

     Called by sum_band:
     sum_band:bec :      0.01s CPU      0.01s WALL (     875 calls)
     addusdens    :      0.26s CPU      0.26s WALL (       7 calls)

     Called by *egterg:
     h_psi        :     16.95s CPU     17.60s WALL (    3036 calls)
     s_psi        :      0.66s CPU      0.66s WALL (    3036 calls)
     g_psi        :      0.07s CPU      0.09s WALL (    2036 calls)
     cdiaghg      :      1.19s CPU      1.22s WALL (    2786 calls)

     Called by h_psi:
     h_psi:pot    :     16.85s CPU     17.52s WALL (    3036 calls)
     h_psi:calbec :      0.90s CPU      0.94s WALL (    3036 calls)
     vloc_psi     :     15.27s CPU     15.84s WALL (    3036 calls)
     add_vuspsi   :      0.65s CPU      0.72s WALL (    3036 calls)

     General routines
     calbec       :      1.31s CPU      1.37s WALL (    4536 calls)
     fft          :      0.10s CPU      0.12s WALL (     137 calls)
     ffts         :      0.01s CPU      0.00s WALL (      14 calls)
     fftw         :     15.88s CPU     16.44s WALL (   57342 calls)
     interpolate  :      0.02s CPU      0.02s WALL (      14 calls)
     davcio       :      0.00s CPU      0.02s WALL (     125 calls)

     Parallel routines
     fft_scatter  :      6.27s CPU      6.54s WALL (   57493 calls)

     PWSCF        :    30.78s CPU        31.88s WALL


   This run was terminated on:  10:57:53  30May2017            

=------------------------------------------------------------------------------=
   JOB DONE.
=------------------------------------------------------------------------------=
