
     Program PWSCF v.6.0 (svn rev. 13079) starts on 30May2017 at 10:43:20 

     This program is part of the open-source Quantum ESPRESSO suite
     for quantum simulation of materials; please cite
         "P. Giannozzi et al., J. Phys.:Condens. Matter 21 395502 (2009);
          URL http://www.quantum-espresso.org", 
     in publications or presentations arising from this work. More details at
     http://www.quantum-espresso.org/quote

     Parallel version (MPI), running on     4 processors
     R & G space division:  proc/nbgrp/npool/nimage =       4
     Waiting for input...
     Reading input from standard input
Warning: card &IONS ignored
Warning: card ION_DYNAMICS='BFGS', ignored
Warning: card / ignored
Warning: card &CELL ignored
Warning: card CELL_DYNAMICS='BFGS', ignored
Warning: card PRESS = 0.0, ignored
Warning: card CELL_FACTOR = 2.0, ignored
Warning: card / ignored

     Current dimensions of program PWSCF are:
     Max number of different atomic species (ntypx) = 10
     Max number of k-points (npk) =  40000
     Max angular momentum in pseudopotentials (lmaxx) =  3
               file Al.pbe-nl-kjpaw_psl.1.0.0.UPF: wavefunction(s)  3S 3P renormalized
               file Al.pbe-nl-kjpaw_psl.1.0.0.UPF: wavefunction(s)  3S 3P renormalized
               file Al.pbe-nl-kjpaw_psl.1.0.0.UPF: wavefunction(s)  3S 3P renormalized
               file Al.pbe-nl-kjpaw_psl.1.0.0.UPF: wavefunction(s)  3S 3P renormalized

     Subspace diagonalization in iterative solution of the eigenvalue problem:
     a serial algorithm will be used


     Parallelization info
     --------------------
     sticks:   dense  smooth     PW     G-vecs:    dense   smooth      PW
     Min         217     148     46                 4773     2768     482
     Max         218     149     47                 4774     2771     485
     Sum         869     593    185                19093    11075    1935



     bravais-lattice index     =            0
     lattice parameter (alat)  =       7.6300  a.u.
     unit-cell volume          =     399.1678 (a.u.)^3
     number of atoms/cell      =            4
     number of atomic types    =            4
     number of electrons       =        12.00
     number of Kohn-Sham states=           10
     kinetic-energy cutoff     =      35.0000  Ry
     charge density cutoff     =     200.0000  Ry
     convergence threshold     =      1.0E-06
     mixing beta               =       0.3000
     number of iterations used =           10  TF        mixing
     Exchange-correlation      =  SLA  PW   PBX  PBC ( 1  4  3  4 0 0)

     celldm(1)=   7.630000  celldm(2)=   0.000000  celldm(3)=   0.000000
     celldm(4)=   0.000000  celldm(5)=   0.000000  celldm(6)=   0.000000

     crystal axes: (cart. coord. in units of alat)
               a(1) = (   0.965000   0.000000   0.000000 )  
               a(2) = (   0.000000   0.965000   0.000000 )  
               a(3) = (   0.000000   0.000000   0.965000 )  

     reciprocal axes: (cart. coord. in units 2 pi/alat)
               b(1) = (  1.036269  0.000000  0.000000 )  
               b(2) = (  0.000000  1.036269  0.000000 )  
               b(3) = (  0.000000  0.000000  1.036269 )  


     PseudoPot. # 1 for Al read from file:
     /home/ben/espresso/pp/Al.pbe-nl-kjpaw_psl.1.0.0.UPF
     MD5 check sum: 339dbea23cf3ab9a065ad45c0f9085d7
     Pseudo is Projector augmented-wave + core cor, Zval =  3.0
     Generated using "atomic" code by A. Dal Corso  v.5.1
     Shape of augmentation charge: PSQ
     Using radial grid of 1135 points,  4 beta functions with: 
                l(1) =   0
                l(2) =   0
                l(3) =   1
                l(4) =   1
     Q(r) pseudized with 0 coefficients 


     PseudoPot. # 2 for Al read from file:
     /home/ben/espresso/pp/Al.pbe-nl-kjpaw_psl.1.0.0.UPF
     MD5 check sum: 339dbea23cf3ab9a065ad45c0f9085d7
     Pseudo is Projector augmented-wave + core cor, Zval =  3.0
     Generated using "atomic" code by A. Dal Corso  v.5.1
     Shape of augmentation charge: PSQ
     Using radial grid of 1135 points,  4 beta functions with: 
                l(1) =   0
                l(2) =   0
                l(3) =   1
                l(4) =   1
     Q(r) pseudized with 0 coefficients 


     PseudoPot. # 3 for Al read from file:
     /home/ben/espresso/pp/Al.pbe-nl-kjpaw_psl.1.0.0.UPF
     MD5 check sum: 339dbea23cf3ab9a065ad45c0f9085d7
     Pseudo is Projector augmented-wave + core cor, Zval =  3.0
     Generated using "atomic" code by A. Dal Corso  v.5.1
     Shape of augmentation charge: PSQ
     Using radial grid of 1135 points,  4 beta functions with: 
                l(1) =   0
                l(2) =   0
                l(3) =   1
                l(4) =   1
     Q(r) pseudized with 0 coefficients 


     PseudoPot. # 4 for Al read from file:
     /home/ben/espresso/pp/Al.pbe-nl-kjpaw_psl.1.0.0.UPF
     MD5 check sum: 339dbea23cf3ab9a065ad45c0f9085d7
     Pseudo is Projector augmented-wave + core cor, Zval =  3.0
     Generated using "atomic" code by A. Dal Corso  v.5.1
     Shape of augmentation charge: PSQ
     Using radial grid of 1135 points,  4 beta functions with: 
                l(1) =   0
                l(2) =   0
                l(3) =   1
                l(4) =   1
     Q(r) pseudized with 0 coefficients 


     atomic species   valence    mass     pseudopotential
        Al1            3.00    26.98200     Al( 1.00)
        Al2            3.00    26.98200     Al( 1.00)
        Al3            3.00    26.98200     Al( 1.00)
        Al4            3.00    26.98200     Al( 1.00)

      8 Sym. Ops., with inversion, found



   Cartesian axes

     site n.     atom                  positions (alat units)
         1           Al1 tau(   1) = (   0.0000000   0.0000000   0.0000000  )
         2           Al2 tau(   2) = (   0.4825000   0.4825000   0.0000000  )
         3           Al3 tau(   3) = (   0.4825000   0.0000000   0.4825000  )
         4           Al4 tau(   4) = (   0.0000000   0.4825000   0.4825000  )

     number of k points=   125  Marzari-Vanderbilt smearing, width (Ry)=  0.0200

     Number of k-points >= 100: set verbosity='high' to print them.

     Dense  grid:    19093 G-vectors     FFT dimensions: (  36,  36,  36)

     Smooth grid:    11075 G-vectors     FFT dimensions: (  27,  27,  27)

     Estimated max dynamical RAM per process >      10.57Mb

     Estimated total allocated dynamical RAM >      42.27Mb

     Initial potential from superposition of free atoms

     starting charge   11.99084, renormalised to   12.00000
     Starting wfc are   16 randomized atomic wfcs
     Checking if some PAW data can be deallocated... 

     total cpu time spent up to now is        7.7 secs

     per-process dynamical memory:    20.0 Mb

     Self-consistent Calculation

     iteration #  1     ecut=    35.00 Ry     beta=0.30
     Davidson diagonalization with overlap
     ethr =  1.00E-02,  avg # of iterations =  3.9

     Threshold (ethr) on eigenvalues was too large:
     Diagonalizing with lowered threshold

     Davidson diagonalization with overlap
     ethr =  1.91E-04,  avg # of iterations =  3.3

     total cpu time spent up to now is       13.0 secs

     total energy              =    -158.00057480 Ry
     Harris-Foulkes estimate   =    -158.00268221 Ry
     estimated scf accuracy    <       0.02239040 Ry

     iteration #  2     ecut=    35.00 Ry     beta=0.30
     Davidson diagonalization with overlap
     ethr =  1.87E-04,  avg # of iterations =  1.1

     total cpu time spent up to now is       14.6 secs

     total energy              =    -157.99638296 Ry
     Harris-Foulkes estimate   =    -158.00066261 Ry
     estimated scf accuracy    <       0.01389487 Ry

     iteration #  3     ecut=    35.00 Ry     beta=0.30
     Davidson diagonalization with overlap
     ethr =  1.16E-04,  avg # of iterations =  1.0

     total cpu time spent up to now is       16.2 secs

     total energy              =    -157.99659217 Ry
     Harris-Foulkes estimate   =    -157.99658055 Ry
     estimated scf accuracy    <       0.00003598 Ry

     iteration #  4     ecut=    35.00 Ry     beta=0.30
     Davidson diagonalization with overlap
     ethr =  3.00E-07,  avg # of iterations =  3.4

     total cpu time spent up to now is       19.3 secs

     total energy              =    -157.99666026 Ry
     Harris-Foulkes estimate   =    -157.99664133 Ry
     estimated scf accuracy    <       0.00001671 Ry

     iteration #  5     ecut=    35.00 Ry     beta=0.30
     Davidson diagonalization with overlap
     ethr =  1.39E-07,  avg # of iterations =  1.0

     total cpu time spent up to now is       25.0 secs

     total energy              =    -157.99665950 Ry
     Harris-Foulkes estimate   =    -157.99666127 Ry
     estimated scf accuracy    <       0.00000453 Ry

     iteration #  6     ecut=    35.00 Ry     beta=0.30
     Davidson diagonalization with overlap
     ethr =  3.78E-08,  avg # of iterations =  2.2

     total cpu time spent up to now is       31.5 secs

     End of self-consistent calculation

     Number of k-points >= 100: set verbosity='high' to print the bands.

     the Fermi energy is     9.1647 ev

!    total energy              =    -157.99666019 Ry
     Harris-Foulkes estimate   =    -157.99666039 Ry
     estimated scf accuracy    <       0.00000010 Ry

     total all-electron energy =     -1942.567788 Ry

     The total energy is the sum of the following terms:

     one-electron contribution =      13.74919654 Ry
     hartree contribution      =       0.02936446 Ry
     xc contribution           =     -10.60553303 Ry
     ewald contribution        =     -22.41697075 Ry
     one-center paw contrib.   =    -138.75234984 Ry
     smearing contrib. (-TS)   =      -0.00036757 Ry

     convergence has been achieved in   6 iterations

     Forces acting on atoms (Ry/au):

     atom    1 type  1   force =     0.00000000    0.00000000    0.00000000
     atom    2 type  2   force =     0.00000000    0.00000000    0.00000000
     atom    3 type  3   force =     0.00000000    0.00000000    0.00000000
     atom    4 type  4   force =     0.00000000    0.00000000    0.00000000

     Total force =     0.000000     Total SCF correction =     0.000000


     entering subroutine stress ...

          total   stress  (Ry/bohr**3)                   (kbar)     P=  106.29
   0.00072257   0.00000000   0.00000000        106.29      0.00      0.00
   0.00000000   0.00072257   0.00000000          0.00    106.29      0.00
   0.00000000   0.00000000   0.00072256          0.00      0.00    106.29


     Writing output data file template.save

     init_run     :      4.20s CPU      4.39s WALL (       1 calls)
     electrons    :     23.06s CPU     23.83s WALL (       1 calls)
     forces       :      0.75s CPU      0.83s WALL (       1 calls)
     stress       :      1.04s CPU      1.13s WALL (       1 calls)

     Called by init_run:
     wfcinit      :      2.44s CPU      2.58s WALL (       1 calls)
     potinit      :      0.46s CPU      0.46s WALL (       1 calls)

     Called by electrons:
     c_bands      :     18.32s CPU     18.86s WALL (       7 calls)
     sum_band     :      3.58s CPU      3.75s WALL (       7 calls)
     v_of_rho     :      0.23s CPU      0.24s WALL (       7 calls)
     newd         :      0.18s CPU      0.21s WALL (       7 calls)
     PAW_pot      :      1.08s CPU      1.12s WALL (       7 calls)
     mix_rho      :      0.02s CPU      0.02s WALL (       7 calls)

     Called by c_bands:
     init_us_2    :      0.69s CPU      0.75s WALL (    2125 calls)
     cegterg      :     17.60s CPU     18.07s WALL (     875 calls)

     Called by sum_band:
     sum_band:bec :      0.02s CPU      0.01s WALL (     875 calls)
     addusdens    :      0.16s CPU      0.17s WALL (       7 calls)

     Called by *egterg:
     h_psi        :     16.60s CPU     17.07s WALL (    2984 calls)
     s_psi        :      0.42s CPU      0.45s WALL (    2984 calls)
     g_psi        :      0.04s CPU      0.06s WALL (    1984 calls)
     cdiaghg      :      1.02s CPU      0.96s WALL (    2734 calls)

     Called by h_psi:
     h_psi:pot    :     16.55s CPU     17.01s WALL (    2984 calls)
     h_psi:calbec :      0.68s CPU      0.69s WALL (    2984 calls)
     vloc_psi     :     15.33s CPU     15.82s WALL (    2984 calls)
     add_vuspsi   :      0.52s CPU      0.49s WALL (    2984 calls)

     General routines
     calbec       :      1.15s CPU      1.25s WALL (    4484 calls)
     fft          :      0.28s CPU      0.28s WALL (     137 calls)
     ffts         :      0.02s CPU      0.01s WALL (      14 calls)
     fftw         :     16.86s CPU     17.42s WALL (   57364 calls)
     interpolate  :      0.03s CPU      0.03s WALL (      14 calls)
     davcio       :      0.00s CPU      0.01s WALL (     125 calls)

     Parallel routines
     fft_scatter  :      5.02s CPU      5.08s WALL (   57515 calls)

     PWSCF        :    32.43s CPU        33.85s WALL


   This run was terminated on:  10:43:54  30May2017            

=------------------------------------------------------------------------------=
   JOB DONE.
=------------------------------------------------------------------------------=
