
     Program PWSCF v.6.0 (svn rev. 13079) starts on 30May2017 at 10:43:54 

     This program is part of the open-source Quantum ESPRESSO suite
     for quantum simulation of materials; please cite
         "P. Giannozzi et al., J. Phys.:Condens. Matter 21 395502 (2009);
          URL http://www.quantum-espresso.org", 
     in publications or presentations arising from this work. More details at
     http://www.quantum-espresso.org/quote

     Parallel version (MPI), running on     4 processors
     R & G space division:  proc/nbgrp/npool/nimage =       4
     Waiting for input...
     Reading input from standard input
Warning: card &IONS ignored
Warning: card ION_DYNAMICS='BFGS', ignored
Warning: card / ignored
Warning: card &CELL ignored
Warning: card CELL_DYNAMICS='BFGS', ignored
Warning: card PRESS = 0.0, ignored
Warning: card CELL_FACTOR = 2.0, ignored
Warning: card / ignored

     Current dimensions of program PWSCF are:
     Max number of different atomic species (ntypx) = 10
     Max number of k-points (npk) =  40000
     Max angular momentum in pseudopotentials (lmaxx) =  3
               file Al.pbe-nl-kjpaw_psl.1.0.0.UPF: wavefunction(s)  3S 3P renormalized
               file Al.pbe-nl-kjpaw_psl.1.0.0.UPF: wavefunction(s)  3S 3P renormalized
               file Al.pbe-nl-kjpaw_psl.1.0.0.UPF: wavefunction(s)  3S 3P renormalized
               file Al.pbe-nl-kjpaw_psl.1.0.0.UPF: wavefunction(s)  3S 3P renormalized

     Subspace diagonalization in iterative solution of the eigenvalue problem:
     a serial algorithm will be used


     Parallelization info
     --------------------
     sticks:   dense  smooth     PW     G-vecs:    dense   smooth      PW
     Min         219     151     46                 4845     2840     482
     Max         220     153     47                 4846     2841     485
     Sum         877     609    185                19381    11363    1935



     bravais-lattice index     =            0
     lattice parameter (alat)  =       7.6300  a.u.
     unit-cell volume          =     405.4047 (a.u.)^3
     number of atoms/cell      =            4
     number of atomic types    =            4
     number of electrons       =        12.00
     number of Kohn-Sham states=           10
     kinetic-energy cutoff     =      35.0000  Ry
     charge density cutoff     =     200.0000  Ry
     convergence threshold     =      1.0E-06
     mixing beta               =       0.3000
     number of iterations used =           10  TF        mixing
     Exchange-correlation      =  SLA  PW   PBX  PBC ( 1  4  3  4 0 0)

     celldm(1)=   7.630000  celldm(2)=   0.000000  celldm(3)=   0.000000
     celldm(4)=   0.000000  celldm(5)=   0.000000  celldm(6)=   0.000000

     crystal axes: (cart. coord. in units of alat)
               a(1) = (   0.970000   0.000000   0.000000 )  
               a(2) = (   0.000000   0.970000   0.000000 )  
               a(3) = (   0.000000   0.000000   0.970000 )  

     reciprocal axes: (cart. coord. in units 2 pi/alat)
               b(1) = (  1.030928  0.000000  0.000000 )  
               b(2) = (  0.000000  1.030928  0.000000 )  
               b(3) = (  0.000000  0.000000  1.030928 )  


     PseudoPot. # 1 for Al read from file:
     /home/ben/espresso/pp/Al.pbe-nl-kjpaw_psl.1.0.0.UPF
     MD5 check sum: 339dbea23cf3ab9a065ad45c0f9085d7
     Pseudo is Projector augmented-wave + core cor, Zval =  3.0
     Generated using "atomic" code by A. Dal Corso  v.5.1
     Shape of augmentation charge: PSQ
     Using radial grid of 1135 points,  4 beta functions with: 
                l(1) =   0
                l(2) =   0
                l(3) =   1
                l(4) =   1
     Q(r) pseudized with 0 coefficients 


     PseudoPot. # 2 for Al read from file:
     /home/ben/espresso/pp/Al.pbe-nl-kjpaw_psl.1.0.0.UPF
     MD5 check sum: 339dbea23cf3ab9a065ad45c0f9085d7
     Pseudo is Projector augmented-wave + core cor, Zval =  3.0
     Generated using "atomic" code by A. Dal Corso  v.5.1
     Shape of augmentation charge: PSQ
     Using radial grid of 1135 points,  4 beta functions with: 
                l(1) =   0
                l(2) =   0
                l(3) =   1
                l(4) =   1
     Q(r) pseudized with 0 coefficients 


     PseudoPot. # 3 for Al read from file:
     /home/ben/espresso/pp/Al.pbe-nl-kjpaw_psl.1.0.0.UPF
     MD5 check sum: 339dbea23cf3ab9a065ad45c0f9085d7
     Pseudo is Projector augmented-wave + core cor, Zval =  3.0
     Generated using "atomic" code by A. Dal Corso  v.5.1
     Shape of augmentation charge: PSQ
     Using radial grid of 1135 points,  4 beta functions with: 
                l(1) =   0
                l(2) =   0
                l(3) =   1
                l(4) =   1
     Q(r) pseudized with 0 coefficients 


     PseudoPot. # 4 for Al read from file:
     /home/ben/espresso/pp/Al.pbe-nl-kjpaw_psl.1.0.0.UPF
     MD5 check sum: 339dbea23cf3ab9a065ad45c0f9085d7
     Pseudo is Projector augmented-wave + core cor, Zval =  3.0
     Generated using "atomic" code by A. Dal Corso  v.5.1
     Shape of augmentation charge: PSQ
     Using radial grid of 1135 points,  4 beta functions with: 
                l(1) =   0
                l(2) =   0
                l(3) =   1
                l(4) =   1
     Q(r) pseudized with 0 coefficients 


     atomic species   valence    mass     pseudopotential
        Al1            3.00    26.98200     Al( 1.00)
        Al2            3.00    26.98200     Al( 1.00)
        Al3            3.00    26.98200     Al( 1.00)
        Al4            3.00    26.98200     Al( 1.00)

      8 Sym. Ops., with inversion, found



   Cartesian axes

     site n.     atom                  positions (alat units)
         1           Al1 tau(   1) = (   0.0000000   0.0000000   0.0000000  )
         2           Al2 tau(   2) = (   0.4850000   0.4850000   0.0000000  )
         3           Al3 tau(   3) = (   0.4850000   0.0000000   0.4850000  )
         4           Al4 tau(   4) = (   0.0000000   0.4850000   0.4850000  )

     number of k points=   125  Marzari-Vanderbilt smearing, width (Ry)=  0.0200

     Number of k-points >= 100: set verbosity='high' to print them.

     Dense  grid:    19381 G-vectors     FFT dimensions: (  36,  36,  36)

     Smooth grid:    11363 G-vectors     FFT dimensions: (  27,  27,  27)

     Estimated max dynamical RAM per process >      10.71Mb

     Estimated total allocated dynamical RAM >      42.84Mb

     Initial potential from superposition of free atoms

     starting charge   11.99084, renormalised to   12.00000
     Starting wfc are   16 randomized atomic wfcs
     Checking if some PAW data can be deallocated... 

     total cpu time spent up to now is        2.5 secs

     per-process dynamical memory:    20.0 Mb

     Self-consistent Calculation

     iteration #  1     ecut=    35.00 Ry     beta=0.30
     Davidson diagonalization with overlap
     ethr =  1.00E-02,  avg # of iterations =  3.8

     Threshold (ethr) on eigenvalues was too large:
     Diagonalizing with lowered threshold

     Davidson diagonalization with overlap
     ethr =  1.92E-04,  avg # of iterations =  3.4

     total cpu time spent up to now is        7.4 secs

     total energy              =    -158.00468844 Ry
     Harris-Foulkes estimate   =    -158.00678134 Ry
     estimated scf accuracy    <       0.02244563 Ry

     iteration #  2     ecut=    35.00 Ry     beta=0.30
     Davidson diagonalization with overlap
     ethr =  1.87E-04,  avg # of iterations =  1.0

     total cpu time spent up to now is        9.1 secs

     total energy              =    -158.00049534 Ry
     Harris-Foulkes estimate   =    -158.00478549 Ry
     estimated scf accuracy    <       0.01393658 Ry

     iteration #  3     ecut=    35.00 Ry     beta=0.30
     Davidson diagonalization with overlap
     ethr =  1.16E-04,  avg # of iterations =  1.0

     total cpu time spent up to now is       10.9 secs

     total energy              =    -158.00071373 Ry
     Harris-Foulkes estimate   =    -158.00070160 Ry
     estimated scf accuracy    <       0.00003599 Ry

     iteration #  4     ecut=    35.00 Ry     beta=0.30
     Davidson diagonalization with overlap
     ethr =  3.00E-07,  avg # of iterations =  3.5

     total cpu time spent up to now is       19.0 secs

     total energy              =    -158.00078399 Ry
     Harris-Foulkes estimate   =    -158.00076458 Ry
     estimated scf accuracy    <       0.00001715 Ry

     iteration #  5     ecut=    35.00 Ry     beta=0.30
     Davidson diagonalization with overlap
     ethr =  1.43E-07,  avg # of iterations =  1.0

     total cpu time spent up to now is       24.6 secs

     total energy              =    -158.00078296 Ry
     Harris-Foulkes estimate   =    -158.00078498 Ry
     estimated scf accuracy    <       0.00000504 Ry

     iteration #  6     ecut=    35.00 Ry     beta=0.30
     Davidson diagonalization with overlap
     ethr =  4.20E-08,  avg # of iterations =  2.2

     total cpu time spent up to now is       27.4 secs

     End of self-consistent calculation

     Number of k-points >= 100: set verbosity='high' to print the bands.

     the Fermi energy is     8.9905 ev

!    total energy              =    -158.00078370 Ry
     Harris-Foulkes estimate   =    -158.00078389 Ry
     estimated scf accuracy    <       0.00000009 Ry

     total all-electron energy =     -1942.571911 Ry

     The total energy is the sum of the following terms:

     one-electron contribution =      13.58813454 Ry
     hartree contribution      =       0.02836727 Ry
     xc contribution           =     -10.57005553 Ry
     ewald contribution        =     -22.30141935 Ry
     one-center paw contrib.   =    -138.74541586 Ry
     smearing contrib. (-TS)   =      -0.00039477 Ry

     convergence has been achieved in   6 iterations

     Forces acting on atoms (Ry/au):

     atom    1 type  1   force =     0.00000000    0.00000000    0.00000000
     atom    2 type  2   force =     0.00000000    0.00000000    0.00000000
     atom    3 type  3   force =     0.00000000    0.00000000    0.00000000
     atom    4 type  4   force =     0.00000000    0.00000000    0.00000000

     Total force =     0.000000     Total SCF correction =     0.000000


     entering subroutine stress ...

          total   stress  (Ry/bohr**3)                   (kbar)     P=   87.55
   0.00059514   0.00000000   0.00000000         87.55      0.00      0.00
   0.00000000   0.00059514   0.00000000          0.00     87.55      0.00
   0.00000000   0.00000000   0.00059513          0.00      0.00     87.55


     Writing output data file template.save

     init_run     :      1.48s CPU      1.49s WALL (       1 calls)
     electrons    :     24.18s CPU     24.87s WALL (       1 calls)
     forces       :      0.25s CPU      0.25s WALL (       1 calls)
     stress       :      0.69s CPU      0.71s WALL (       1 calls)

     Called by init_run:
     wfcinit      :      0.94s CPU      0.96s WALL (       1 calls)
     potinit      :      0.11s CPU      0.11s WALL (       1 calls)

     Called by electrons:
     c_bands      :     19.66s CPU     20.19s WALL (       7 calls)
     sum_band     :      3.57s CPU      3.70s WALL (       7 calls)
     v_of_rho     :      0.12s CPU      0.13s WALL (       7 calls)
     newd         :      0.13s CPU      0.14s WALL (       7 calls)
     PAW_pot      :      0.75s CPU      0.77s WALL (       7 calls)
     mix_rho      :      0.02s CPU      0.02s WALL (       7 calls)

     Called by c_bands:
     init_us_2    :      0.59s CPU      0.64s WALL (    2125 calls)
     cegterg      :     18.88s CPU     19.36s WALL (     875 calls)

     Called by sum_band:
     sum_band:bec :      0.01s CPU      0.02s WALL (     875 calls)
     addusdens    :      0.14s CPU      0.16s WALL (       7 calls)

     Called by *egterg:
     h_psi        :     16.28s CPU     16.70s WALL (    2995 calls)
     s_psi        :      0.40s CPU      0.43s WALL (    2995 calls)
     g_psi        :      0.05s CPU      0.06s WALL (    1995 calls)
     cdiaghg      :      0.98s CPU      1.03s WALL (    2745 calls)

     Called by h_psi:
     h_psi:pot    :     16.22s CPU     16.64s WALL (    2995 calls)
     h_psi:calbec :      0.71s CPU      0.72s WALL (    2995 calls)
     vloc_psi     :     15.08s CPU     15.45s WALL (    2995 calls)
     add_vuspsi   :      0.43s CPU      0.46s WALL (    2995 calls)

     General routines
     calbec       :      1.06s CPU      1.07s WALL (    4495 calls)
     fft          :      0.12s CPU      0.13s WALL (     137 calls)
     ffts         :      0.02s CPU      0.01s WALL (      14 calls)
     fftw         :     16.74s CPU     17.11s WALL (   57420 calls)
     interpolate  :      0.03s CPU      0.02s WALL (      14 calls)
     davcio       :      0.00s CPU      0.00s WALL (     125 calls)

     Parallel routines
     fft_scatter  :      5.24s CPU      5.30s WALL (   57571 calls)

     PWSCF        :    27.85s CPU        28.71s WALL


   This run was terminated on:  10:44:23  30May2017            

=------------------------------------------------------------------------------=
   JOB DONE.
=------------------------------------------------------------------------------=
