
     Program PWSCF v.6.0 (svn rev. 13079) starts on 30May2017 at 10:45: 7 

     This program is part of the open-source Quantum ESPRESSO suite
     for quantum simulation of materials; please cite
         "P. Giannozzi et al., J. Phys.:Condens. Matter 21 395502 (2009);
          URL http://www.quantum-espresso.org", 
     in publications or presentations arising from this work. More details at
     http://www.quantum-espresso.org/quote

     Parallel version (MPI), running on     4 processors
     R & G space division:  proc/nbgrp/npool/nimage =       4
     Waiting for input...
     Reading input from standard input
Warning: card &IONS ignored
Warning: card ION_DYNAMICS='BFGS', ignored
Warning: card / ignored
Warning: card &CELL ignored
Warning: card CELL_DYNAMICS='BFGS', ignored
Warning: card PRESS = 0.0, ignored
Warning: card CELL_FACTOR = 2.0, ignored
Warning: card / ignored

     Current dimensions of program PWSCF are:
     Max number of different atomic species (ntypx) = 10
     Max number of k-points (npk) =  40000
     Max angular momentum in pseudopotentials (lmaxx) =  3
               file Al.pbe-nl-kjpaw_psl.1.0.0.UPF: wavefunction(s)  3S 3P renormalized
               file Al.pbe-nl-kjpaw_psl.1.0.0.UPF: wavefunction(s)  3S 3P renormalized
               file Al.pbe-nl-kjpaw_psl.1.0.0.UPF: wavefunction(s)  3S 3P renormalized
               file Al.pbe-nl-kjpaw_psl.1.0.0.UPF: wavefunction(s)  3S 3P renormalized

     Subspace diagonalization in iterative solution of the eigenvalue problem:
     a serial algorithm will be used


     Parallelization info
     --------------------
     sticks:   dense  smooth     PW     G-vecs:    dense   smooth      PW
     Min         220     155     48                 5000     2937     501
     Max         222     156     49                 5002     2940     502
     Sum         885     621    193                20005    11753    2007



     bravais-lattice index     =            0
     lattice parameter (alat)  =       7.6300  a.u.
     unit-cell volume          =     418.0727 (a.u.)^3
     number of atoms/cell      =            4
     number of atomic types    =            4
     number of electrons       =        12.00
     number of Kohn-Sham states=           10
     kinetic-energy cutoff     =      35.0000  Ry
     charge density cutoff     =     200.0000  Ry
     convergence threshold     =      1.0E-06
     mixing beta               =       0.3000
     number of iterations used =           10  TF        mixing
     Exchange-correlation      =  SLA  PW   PBX  PBC ( 1  4  3  4 0 0)

     celldm(1)=   7.630000  celldm(2)=   0.000000  celldm(3)=   0.000000
     celldm(4)=   0.000000  celldm(5)=   0.000000  celldm(6)=   0.000000

     crystal axes: (cart. coord. in units of alat)
               a(1) = (   0.980000   0.000000   0.000000 )  
               a(2) = (   0.000000   0.980000   0.000000 )  
               a(3) = (   0.000000   0.000000   0.980000 )  

     reciprocal axes: (cart. coord. in units 2 pi/alat)
               b(1) = (  1.020408  0.000000  0.000000 )  
               b(2) = (  0.000000  1.020408  0.000000 )  
               b(3) = (  0.000000  0.000000  1.020408 )  


     PseudoPot. # 1 for Al read from file:
     /home/ben/espresso/pp/Al.pbe-nl-kjpaw_psl.1.0.0.UPF
     MD5 check sum: 339dbea23cf3ab9a065ad45c0f9085d7
     Pseudo is Projector augmented-wave + core cor, Zval =  3.0
     Generated using "atomic" code by A. Dal Corso  v.5.1
     Shape of augmentation charge: PSQ
     Using radial grid of 1135 points,  4 beta functions with: 
                l(1) =   0
                l(2) =   0
                l(3) =   1
                l(4) =   1
     Q(r) pseudized with 0 coefficients 


     PseudoPot. # 2 for Al read from file:
     /home/ben/espresso/pp/Al.pbe-nl-kjpaw_psl.1.0.0.UPF
     MD5 check sum: 339dbea23cf3ab9a065ad45c0f9085d7
     Pseudo is Projector augmented-wave + core cor, Zval =  3.0
     Generated using "atomic" code by A. Dal Corso  v.5.1
     Shape of augmentation charge: PSQ
     Using radial grid of 1135 points,  4 beta functions with: 
                l(1) =   0
                l(2) =   0
                l(3) =   1
                l(4) =   1
     Q(r) pseudized with 0 coefficients 


     PseudoPot. # 3 for Al read from file:
     /home/ben/espresso/pp/Al.pbe-nl-kjpaw_psl.1.0.0.UPF
     MD5 check sum: 339dbea23cf3ab9a065ad45c0f9085d7
     Pseudo is Projector augmented-wave + core cor, Zval =  3.0
     Generated using "atomic" code by A. Dal Corso  v.5.1
     Shape of augmentation charge: PSQ
     Using radial grid of 1135 points,  4 beta functions with: 
                l(1) =   0
                l(2) =   0
                l(3) =   1
                l(4) =   1
     Q(r) pseudized with 0 coefficients 


     PseudoPot. # 4 for Al read from file:
     /home/ben/espresso/pp/Al.pbe-nl-kjpaw_psl.1.0.0.UPF
     MD5 check sum: 339dbea23cf3ab9a065ad45c0f9085d7
     Pseudo is Projector augmented-wave + core cor, Zval =  3.0
     Generated using "atomic" code by A. Dal Corso  v.5.1
     Shape of augmentation charge: PSQ
     Using radial grid of 1135 points,  4 beta functions with: 
                l(1) =   0
                l(2) =   0
                l(3) =   1
                l(4) =   1
     Q(r) pseudized with 0 coefficients 


     atomic species   valence    mass     pseudopotential
        Al1            3.00    26.98200     Al( 1.00)
        Al2            3.00    26.98200     Al( 1.00)
        Al3            3.00    26.98200     Al( 1.00)
        Al4            3.00    26.98200     Al( 1.00)

      8 Sym. Ops., with inversion, found



   Cartesian axes

     site n.     atom                  positions (alat units)
         1           Al1 tau(   1) = (   0.0000000   0.0000000   0.0000000  )
         2           Al2 tau(   2) = (   0.4900000   0.4900000   0.0000000  )
         3           Al3 tau(   3) = (   0.4900000   0.0000000   0.4900000  )
         4           Al4 tau(   4) = (   0.0000000   0.4900000   0.4900000  )

     number of k points=   125  Marzari-Vanderbilt smearing, width (Ry)=  0.0200

     Number of k-points >= 100: set verbosity='high' to print them.

     Dense  grid:    20005 G-vectors     FFT dimensions: (  36,  36,  36)

     Smooth grid:    11753 G-vectors     FFT dimensions: (  30,  30,  30)

     Estimated max dynamical RAM per process >      11.02Mb

     Estimated total allocated dynamical RAM >      44.07Mb

     Initial potential from superposition of free atoms

     starting charge   11.99084, renormalised to   12.00000
     Starting wfc are   16 randomized atomic wfcs
     Checking if some PAW data can be deallocated... 

     total cpu time spent up to now is        8.4 secs

     per-process dynamical memory:    20.5 Mb

     Self-consistent Calculation

     iteration #  1     ecut=    35.00 Ry     beta=0.30
     Davidson diagonalization with overlap
     ethr =  1.00E-02,  avg # of iterations =  3.5

     Threshold (ethr) on eigenvalues was too large:
     Diagonalizing with lowered threshold

     Davidson diagonalization with overlap
     ethr =  1.93E-04,  avg # of iterations =  3.7

     total cpu time spent up to now is       16.2 secs

     total energy              =    -158.01076909 Ry
     Harris-Foulkes estimate   =    -158.01283858 Ry
     estimated scf accuracy    <       0.02254187 Ry

     iteration #  2     ecut=    35.00 Ry     beta=0.30
     Davidson diagonalization with overlap
     ethr =  1.88E-04,  avg # of iterations =  1.0

     total cpu time spent up to now is       19.1 secs

     total energy              =    -158.00655767 Ry
     Harris-Foulkes estimate   =    -158.01087071 Ry
     estimated scf accuracy    <       0.01401315 Ry

     iteration #  3     ecut=    35.00 Ry     beta=0.30
     Davidson diagonalization with overlap
     ethr =  1.17E-04,  avg # of iterations =  1.0

     total cpu time spent up to now is       26.7 secs

     total energy              =    -158.00679102 Ry
     Harris-Foulkes estimate   =    -158.00677780 Ry
     estimated scf accuracy    <       0.00003605 Ry

     iteration #  4     ecut=    35.00 Ry     beta=0.30
     Davidson diagonalization with overlap
     ethr =  3.00E-07,  avg # of iterations =  3.5

     total cpu time spent up to now is       36.0 secs

     total energy              =    -158.00686411 Ry
     Harris-Foulkes estimate   =    -158.00684483 Ry
     estimated scf accuracy    <       0.00001741 Ry

     iteration #  5     ecut=    35.00 Ry     beta=0.30
     Davidson diagonalization with overlap
     ethr =  1.45E-07,  avg # of iterations =  1.0

     total cpu time spent up to now is       38.5 secs

     total energy              =    -158.00686264 Ry
     Harris-Foulkes estimate   =    -158.00686504 Ry
     estimated scf accuracy    <       0.00000566 Ry

     iteration #  6     ecut=    35.00 Ry     beta=0.30
     Davidson diagonalization with overlap
     ethr =  4.71E-08,  avg # of iterations =  2.1

     total cpu time spent up to now is       41.6 secs

     End of self-consistent calculation

     Number of k-points >= 100: set verbosity='high' to print the bands.

     the Fermi energy is     8.6489 ev

!    total energy              =    -158.00686341 Ry
     Harris-Foulkes estimate   =    -158.00686358 Ry
     estimated scf accuracy    <       0.00000008 Ry

     total all-electron energy =     -1942.577991 Ry

     The total energy is the sum of the following terms:

     one-electron contribution =      13.27400042 Ry
     hartree contribution      =       0.02663553 Ry
     xc contribution           =     -10.50073794 Ry
     ewald contribution        =     -22.07385385 Ry
     one-center paw contrib.   =    -138.73244842 Ry
     smearing contrib. (-TS)   =      -0.00045915 Ry

     convergence has been achieved in   6 iterations

     Forces acting on atoms (Ry/au):

     atom    1 type  1   force =     0.00000000    0.00000000    0.00000000
     atom    2 type  2   force =     0.00000000    0.00000000    0.00000000
     atom    3 type  3   force =     0.00000000    0.00000000    0.00000000
     atom    4 type  4   force =     0.00000000    0.00000000    0.00000000

     Total force =     0.000000     Total SCF correction =     0.000000


     entering subroutine stress ...

          total   stress  (Ry/bohr**3)                   (kbar)     P=   53.81
   0.00036579   0.00000000   0.00000000         53.81      0.00      0.00
   0.00000000   0.00036579   0.00000000          0.00     53.81      0.00
   0.00000000   0.00000000   0.00036579          0.00      0.00     53.81


     Writing output data file template.save

     init_run     :      4.97s CPU      5.05s WALL (       1 calls)
     electrons    :     32.14s CPU     33.29s WALL (       1 calls)
     forces       :      0.25s CPU      0.25s WALL (       1 calls)
     stress       :      0.74s CPU      0.75s WALL (       1 calls)

     Called by init_run:
     wfcinit      :      3.18s CPU      3.23s WALL (       1 calls)
     potinit      :      0.36s CPU      0.36s WALL (       1 calls)

     Called by electrons:
     c_bands      :     26.69s CPU     27.71s WALL (       7 calls)
     sum_band     :      4.66s CPU      4.78s WALL (       7 calls)
     v_of_rho     :      0.13s CPU      0.14s WALL (       7 calls)
     newd         :      0.15s CPU      0.16s WALL (       7 calls)
     PAW_pot      :      0.78s CPU      0.79s WALL (       7 calls)
     mix_rho      :      0.01s CPU      0.01s WALL (       7 calls)

     Called by c_bands:
     init_us_2    :      0.57s CPU      0.61s WALL (    2125 calls)
     cegterg      :     26.00s CPU     26.97s WALL (     875 calls)

     Called by sum_band:
     sum_band:bec :      0.02s CPU      0.01s WALL (     875 calls)
     addusdens    :      0.15s CPU      0.16s WALL (       7 calls)

     Called by *egterg:
     h_psi        :     25.80s CPU     26.61s WALL (    2976 calls)
     s_psi        :      0.38s CPU      0.44s WALL (    2976 calls)
     g_psi        :      0.06s CPU      0.07s WALL (    1976 calls)
     cdiaghg      :      0.95s CPU      0.98s WALL (    2726 calls)

     Called by h_psi:
     h_psi:pot    :     25.75s CPU     26.54s WALL (    2976 calls)
     h_psi:calbec :      0.62s CPU      0.71s WALL (    2976 calls)
     vloc_psi     :     24.64s CPU     25.35s WALL (    2976 calls)
     add_vuspsi   :      0.47s CPU      0.48s WALL (    2976 calls)

     General routines
     calbec       :      0.95s CPU      1.08s WALL (    4476 calls)
     fft          :      0.15s CPU      0.16s WALL (     137 calls)
     ffts         :      0.01s CPU      0.01s WALL (      14 calls)
     fftw         :     27.48s CPU     28.14s WALL (   57504 calls)
     interpolate  :      0.03s CPU      0.02s WALL (      14 calls)
     davcio       :      0.00s CPU      0.01s WALL (     125 calls)

     Parallel routines
     fft_scatter  :      5.92s CPU      6.15s WALL (   57655 calls)

     PWSCF        :    41.49s CPU        42.96s WALL


   This run was terminated on:  10:45:50  30May2017            

=------------------------------------------------------------------------------=
   JOB DONE.
=------------------------------------------------------------------------------=
