
     Program PWSCF v.6.0 (svn rev. 13079) starts on 30May2017 at 10:36: 3 

     This program is part of the open-source Quantum ESPRESSO suite
     for quantum simulation of materials; please cite
         "P. Giannozzi et al., J. Phys.:Condens. Matter 21 395502 (2009);
          URL http://www.quantum-espresso.org", 
     in publications or presentations arising from this work. More details at
     http://www.quantum-espresso.org/quote

     Parallel version (MPI), running on     4 processors
     R & G space division:  proc/nbgrp/npool/nimage =       4
     Waiting for input...
     Reading input from standard input
Warning: card &IONS ignored
Warning: card ION_DYNAMICS='BFGS', ignored
Warning: card / ignored
Warning: card &CELL ignored
Warning: card CELL_DYNAMICS='BFGS', ignored
Warning: card PRESS = 0.0, ignored
Warning: card CELL_FACTOR = 2.0, ignored
Warning: card / ignored

     Current dimensions of program PWSCF are:
     Max number of different atomic species (ntypx) = 10
     Max number of k-points (npk) =  40000
     Max angular momentum in pseudopotentials (lmaxx) =  3
               file Al.pbe-nl-kjpaw_psl.1.0.0.UPF: wavefunction(s)  3S 3P renormalized

     Subspace diagonalization in iterative solution of the eigenvalue problem:
     a serial algorithm will be used


     Parallelization info
     --------------------
     sticks:   dense  smooth     PW     G-vecs:    dense   smooth      PW
     Min         233     233     69                 5311     5311     851
     Max         234     234     70                 5314     5314     854
     Sum         933     933    277                21247    21247    3407



     bravais-lattice index     =            0
     lattice parameter (alat)  =       7.6300  a.u.
     unit-cell volume          =     444.1949 (a.u.)^3
     number of atoms/cell      =            1
     number of atomic types    =            1
     number of electrons       =         3.00
     number of Kohn-Sham states=            6
     kinetic-energy cutoff     =      50.0000  Ry
     charge density cutoff     =     200.0000  Ry
     convergence threshold     =      1.0E-06
     mixing beta               =       0.3000
     number of iterations used =           10  TF        mixing
     Exchange-correlation      =  SLA  PW   PBX  PBC ( 1  4  3  4 0 0)

     celldm(1)=   7.630000  celldm(2)=   0.000000  celldm(3)=   0.000000
     celldm(4)=   0.000000  celldm(5)=   0.000000  celldm(6)=   0.000000

     crystal axes: (cart. coord. in units of alat)
               a(1) = (   1.000000   0.000000   0.000000 )  
               a(2) = (   0.000000   1.000000   0.000000 )  
               a(3) = (   0.000000   0.000000   1.000000 )  

     reciprocal axes: (cart. coord. in units 2 pi/alat)
               b(1) = (  1.000000  0.000000  0.000000 )  
               b(2) = (  0.000000  1.000000  0.000000 )  
               b(3) = (  0.000000  0.000000  1.000000 )  


     PseudoPot. # 1 for Al read from file:
     /home/ben/espresso/pp/Al.pbe-nl-kjpaw_psl.1.0.0.UPF
     MD5 check sum: 339dbea23cf3ab9a065ad45c0f9085d7
     Pseudo is Projector augmented-wave + core cor, Zval =  3.0
     Generated using "atomic" code by A. Dal Corso  v.5.1
     Shape of augmentation charge: PSQ
     Using radial grid of 1135 points,  4 beta functions with: 
                l(1) =   0
                l(2) =   0
                l(3) =   1
                l(4) =   1
     Q(r) pseudized with 0 coefficients 


     atomic species   valence    mass     pseudopotential
        AL             3.00    26.98200     Al( 1.00)

     Starting magnetic structure 
     atomic species   magnetization
        AL           0.700

     No symmetry found



   Cartesian axes

     site n.     atom                  positions (alat units)
         1           AL  tau(   1) = (   0.5000000   0.5000000   0.5000000  )

     number of k points=   500  Marzari-Vanderbilt smearing, width (Ry)=  0.0200

     Number of k-points >= 100: set verbosity='high' to print them.

     Dense  grid:    21247 G-vectors     FFT dimensions: (  36,  36,  36)

     Estimated max dynamical RAM per process >      66.99Mb

     Estimated total allocated dynamical RAM >     267.96Mb
     Generating pointlists ...
     new r_m :   0.4125 (alat units)  3.1474 (a.u.) for type    1

     Initial potential from superposition of free atoms

     starting charge    2.99771, renormalised to    3.00000
     Starting wfc are    4 randomized atomic wfcs +    2 random wfc
     Checking if some PAW data can be deallocated... 

     total cpu time spent up to now is        6.8 secs

     per-process dynamical memory:    76.0 Mb

     Self-consistent Calculation

     iteration #  1     ecut=    50.00 Ry     beta=0.30
     Davidson diagonalization with overlap
     ethr =  1.00E-02,  avg # of iterations =  6.3

     Threshold (ethr) on eigenvalues was too large:
     Diagonalizing with lowered threshold

     Davidson diagonalization with overlap
     ethr =  1.20E-04,  avg # of iterations =  3.4

     total cpu time spent up to now is       85.1 secs

     total energy              =     -39.32144877 Ry
     Harris-Foulkes estimate   =     -39.31113591 Ry
     estimated scf accuracy    <       0.00339348 Ry

     total magnetization       =     0.97 Bohr mag/cell
     absolute magnetization    =     0.97 Bohr mag/cell

     iteration #  2     ecut=    50.00 Ry     beta=0.30
     Davidson diagonalization with overlap
     ethr =  1.13E-04,  avg # of iterations =  1.0

     total cpu time spent up to now is      110.4 secs

     total energy              =     -39.33471810 Ry
     Harris-Foulkes estimate   =     -39.32185795 Ry
     estimated scf accuracy    <       0.00218037 Ry

     total magnetization       =     0.89 Bohr mag/cell
     absolute magnetization    =     0.89 Bohr mag/cell

     iteration #  3     ecut=    50.00 Ry     beta=0.30
     Davidson diagonalization with overlap
     ethr =  7.27E-05,  avg # of iterations =  2.0

     total cpu time spent up to now is      136.4 secs

     total energy              =     -39.33852041 Ry
     Harris-Foulkes estimate   =     -39.33902993 Ry
     estimated scf accuracy    <       0.00068626 Ry

     total magnetization       =     0.56 Bohr mag/cell
     absolute magnetization    =     0.56 Bohr mag/cell

     iteration #  4     ecut=    50.00 Ry     beta=0.30
     Davidson diagonalization with overlap
     ethr =  2.29E-05,  avg # of iterations =  2.3

     total cpu time spent up to now is      163.7 secs

     total energy              =     -39.34196211 Ry
     Harris-Foulkes estimate   =     -39.34197348 Ry
     estimated scf accuracy    <       0.00010876 Ry

     total magnetization       =     0.20 Bohr mag/cell
     absolute magnetization    =     0.20 Bohr mag/cell

     iteration #  5     ecut=    50.00 Ry     beta=0.30
     Davidson diagonalization with overlap
     ethr =  3.63E-06,  avg # of iterations =  3.1

     total cpu time spent up to now is      206.2 secs

     total energy              =     -39.34239247 Ry
     Harris-Foulkes estimate   =     -39.34219170 Ry
     estimated scf accuracy    <       0.00006124 Ry

     total magnetization       =     0.27 Bohr mag/cell
     absolute magnetization    =     0.27 Bohr mag/cell

     iteration #  6     ecut=    50.00 Ry     beta=0.30
     Davidson diagonalization with overlap
     ethr =  2.04E-06,  avg # of iterations =  1.9

     total cpu time spent up to now is      233.7 secs

     total energy              =     -39.34235238 Ry
     Harris-Foulkes estimate   =     -39.34256694 Ry
     estimated scf accuracy    <       0.00002424 Ry

     total magnetization       =     0.19 Bohr mag/cell
     absolute magnetization    =     0.19 Bohr mag/cell

     iteration #  7     ecut=    50.00 Ry     beta=0.30
     Davidson diagonalization with overlap
     ethr =  8.08E-07,  avg # of iterations =  2.4

     total cpu time spent up to now is      262.9 secs

     total energy              =     -39.34289745 Ry
     Harris-Foulkes estimate   =     -39.34292103 Ry
     estimated scf accuracy    <       0.00000278 Ry

     total magnetization       =     0.03 Bohr mag/cell
     absolute magnetization    =     0.03 Bohr mag/cell

     iteration #  8     ecut=    50.00 Ry     beta=0.30
     Davidson diagonalization with overlap
     ethr =  9.27E-08,  avg # of iterations =  1.8

     Magnetic moment per site:
     atom:    1    charge:    2.2343    magn:    0.0299    constr:    0.0000

     total cpu time spent up to now is      290.5 secs

     End of self-consistent calculation

     Number of k-points >= 100: set verbosity='high' to print the bands.

     the Fermi energy is    -0.4227 ev

!    total energy              =     -39.34291467 Ry
     Harris-Foulkes estimate   =     -39.34290728 Ry
     estimated scf accuracy    <       0.00000071 Ry

     total all-electron energy =      -485.485697 Ry

     The total energy is the sum of the following terms:

     one-electron contribution =       0.58292474 Ry
     hartree contribution      =       0.28870745 Ry
     xc contribution           =      -2.20376183 Ry
     ewald contribution        =      -3.34674674 Ry
     one-center paw contrib.   =     -34.66341812 Ry
     smearing contrib. (-TS)   =      -0.00062017 Ry

     total magnetization       =     0.05 Bohr mag/cell
     absolute magnetization    =     0.05 Bohr mag/cell

     convergence has been achieved in   8 iterations

     Forces acting on atoms (Ry/au):

     atom    1 type  1   force =     0.00000000    0.00000000    0.00000000

     Total force =     0.000000     Total SCF correction =     0.000006


     entering subroutine stress ...

          total   stress  (Ry/bohr**3)                   (kbar)     P=  -37.58
  -0.00025544  -0.00000000   0.00000000        -37.58     -0.00      0.00
  -0.00000000  -0.00025545   0.00000000         -0.00    -37.58      0.00
   0.00000000   0.00000000  -0.00025546          0.00      0.00    -37.58


     Writing output data file isolatedAtom.save

     init_run     :      6.19s CPU      6.43s WALL (       1 calls)
     electrons    :    273.80s CPU    283.70s WALL (       1 calls)
     forces       :      0.52s CPU      0.55s WALL (       1 calls)
     stress       :      3.62s CPU      3.66s WALL (       1 calls)

     Called by init_run:
     wfcinit      :      5.87s CPU      6.09s WALL (       1 calls)
     potinit      :      0.12s CPU      0.12s WALL (       1 calls)

     Called by electrons:
     c_bands      :    235.23s CPU    243.78s WALL (       9 calls)
     sum_band     :     37.41s CPU     38.68s WALL (       9 calls)
     v_of_rho     :      0.38s CPU      0.40s WALL (       9 calls)
     newd         :      0.07s CPU      0.08s WALL (       9 calls)
     PAW_pot      :      0.76s CPU      0.82s WALL (       9 calls)
     mix_rho      :      0.04s CPU      0.05s WALL (       9 calls)

     Called by c_bands:
     init_us_2    :      5.42s CPU      5.78s WALL (   21000 calls)
     cegterg      :    229.27s CPU    237.62s WALL (    9000 calls)

     Called by sum_band:
     sum_band:bec :      0.11s CPU      0.07s WALL (    9000 calls)
     addusdens    :      0.10s CPU      0.12s WALL (       9 calls)

     Called by *egterg:
     h_psi        :    208.18s CPU    215.62s WALL (   34347 calls)
     s_psi        :      1.90s CPU      2.01s WALL (   34347 calls)
     g_psi        :      0.70s CPU      0.81s WALL (   24347 calls)
     cdiaghg      :      6.13s CPU      6.44s WALL (   32347 calls)

     Called by h_psi:
     h_psi:pot    :    207.42s CPU    214.89s WALL (   34347 calls)
     h_psi:calbec :      3.33s CPU      3.48s WALL (   34347 calls)
     vloc_psi     :    201.74s CPU    208.98s WALL (   34347 calls)
     add_vuspsi   :      2.20s CPU      2.25s WALL (   34347 calls)

     General routines
     calbec       :      5.27s CPU      5.43s WALL (   48347 calls)
     fft          :      0.20s CPU      0.20s WALL (     271 calls)
     fftw         :    223.43s CPU    231.35s WALL (  348878 calls)
     davcio       :      0.02s CPU      0.05s WALL (    1000 calls)

     Parallel routines
     fft_scatter  :     56.60s CPU     59.16s WALL (  349149 calls)

     PWSCF        :  4m45.88s CPU     4m56.30s WALL


   This run was terminated on:  10:40:59  30May2017            

=------------------------------------------------------------------------------=
   JOB DONE.
=------------------------------------------------------------------------------=
