
     Program PWSCF v.6.0 (svn rev. 13079) starts on 30May2017 at 11: 2:11 

     This program is part of the open-source Quantum ESPRESSO suite
     for quantum simulation of materials; please cite
         "P. Giannozzi et al., J. Phys.:Condens. Matter 21 395502 (2009);
          URL http://www.quantum-espresso.org", 
     in publications or presentations arising from this work. More details at
     http://www.quantum-espresso.org/quote

     Parallel version (MPI), running on     4 processors
     R & G space division:  proc/nbgrp/npool/nimage =       4
     Waiting for input...
     Reading input from standard input
Warning: card &IONS ignored
Warning: card ION_DYNAMICS='BFGS', ignored
Warning: card / ignored
Warning: card &CELL ignored
Warning: card CELL_DYNAMICS='BFGS', ignored
Warning: card PRESS = 0.0, ignored
Warning: card CELL_FACTOR = 2.0, ignored
Warning: card / ignored

     Current dimensions of program PWSCF are:
     Max number of different atomic species (ntypx) = 10
     Max number of k-points (npk) =  40000
     Max angular momentum in pseudopotentials (lmaxx) =  3
               file Al.pbe-nl-kjpaw_psl.1.0.0.UPF: wavefunction(s)  3S 3P renormalized
               file Al.pbe-nl-kjpaw_psl.1.0.0.UPF: wavefunction(s)  3S 3P renormalized
               file Al.pbe-nl-kjpaw_psl.1.0.0.UPF: wavefunction(s)  3S 3P renormalized
               file Al.pbe-nl-kjpaw_psl.1.0.0.UPF: wavefunction(s)  3S 3P renormalized

     Subspace diagonalization in iterative solution of the eigenvalue problem:
     a serial algorithm will be used


     Parallelization info
     --------------------
     sticks:   dense  smooth     PW     G-vecs:    dense   smooth      PW
     Min         231     162     48                 5301     3110     526
     Max         232     164     50                 5304     3111     527
     Sum         927     653    195                21209    12441    2105



     bravais-lattice index     =            0
     lattice parameter (alat)  =       7.6300  a.u.
     unit-cell volume          =     444.1949 (a.u.)^3
     number of atoms/cell      =            4
     number of atomic types    =            4
     number of electrons       =        12.00
     number of Kohn-Sham states=           10
     kinetic-energy cutoff     =      35.0000  Ry
     charge density cutoff     =     200.0000  Ry
     convergence threshold     =      1.0E-06
     mixing beta               =       0.3000
     number of iterations used =           10  TF        mixing
     Exchange-correlation      =  SLA  PW   PBX  PBC ( 1  4  3  4 0 0)

     celldm(1)=   7.630000  celldm(2)=   0.000000  celldm(3)=   0.000000
     celldm(4)=   0.000000  celldm(5)=   0.000000  celldm(6)=   0.000000

     crystal axes: (cart. coord. in units of alat)
               a(1) = (   1.012000   0.000000   0.000000 )  
               a(2) = (   0.000000   0.988000   0.000000 )  
               a(3) = (   0.000000   0.000000   1.000144 )  

     reciprocal axes: (cart. coord. in units 2 pi/alat)
               b(1) = (  0.988142  0.000000  0.000000 )  
               b(2) = (  0.000000  1.012146  0.000000 )  
               b(3) = (  0.000000  0.000000  0.999856 )  


     PseudoPot. # 1 for Al read from file:
     /home/ben/espresso/pp/Al.pbe-nl-kjpaw_psl.1.0.0.UPF
     MD5 check sum: 339dbea23cf3ab9a065ad45c0f9085d7
     Pseudo is Projector augmented-wave + core cor, Zval =  3.0
     Generated using "atomic" code by A. Dal Corso  v.5.1
     Shape of augmentation charge: PSQ
     Using radial grid of 1135 points,  4 beta functions with: 
                l(1) =   0
                l(2) =   0
                l(3) =   1
                l(4) =   1
     Q(r) pseudized with 0 coefficients 


     PseudoPot. # 2 for Al read from file:
     /home/ben/espresso/pp/Al.pbe-nl-kjpaw_psl.1.0.0.UPF
     MD5 check sum: 339dbea23cf3ab9a065ad45c0f9085d7
     Pseudo is Projector augmented-wave + core cor, Zval =  3.0
     Generated using "atomic" code by A. Dal Corso  v.5.1
     Shape of augmentation charge: PSQ
     Using radial grid of 1135 points,  4 beta functions with: 
                l(1) =   0
                l(2) =   0
                l(3) =   1
                l(4) =   1
     Q(r) pseudized with 0 coefficients 


     PseudoPot. # 3 for Al read from file:
     /home/ben/espresso/pp/Al.pbe-nl-kjpaw_psl.1.0.0.UPF
     MD5 check sum: 339dbea23cf3ab9a065ad45c0f9085d7
     Pseudo is Projector augmented-wave + core cor, Zval =  3.0
     Generated using "atomic" code by A. Dal Corso  v.5.1
     Shape of augmentation charge: PSQ
     Using radial grid of 1135 points,  4 beta functions with: 
                l(1) =   0
                l(2) =   0
                l(3) =   1
                l(4) =   1
     Q(r) pseudized with 0 coefficients 


     PseudoPot. # 4 for Al read from file:
     /home/ben/espresso/pp/Al.pbe-nl-kjpaw_psl.1.0.0.UPF
     MD5 check sum: 339dbea23cf3ab9a065ad45c0f9085d7
     Pseudo is Projector augmented-wave + core cor, Zval =  3.0
     Generated using "atomic" code by A. Dal Corso  v.5.1
     Shape of augmentation charge: PSQ
     Using radial grid of 1135 points,  4 beta functions with: 
                l(1) =   0
                l(2) =   0
                l(3) =   1
                l(4) =   1
     Q(r) pseudized with 0 coefficients 


     atomic species   valence    mass     pseudopotential
        Al1            3.00    26.98200     Al( 1.00)
        Al2            3.00    26.98200     Al( 1.00)
        Al3            3.00    26.98200     Al( 1.00)
        Al4            3.00    26.98200     Al( 1.00)

      8 Sym. Ops., with inversion, found



   Cartesian axes

     site n.     atom                  positions (alat units)
         1           Al1 tau(   1) = (   0.0000000   0.0000000   0.0000000  )
         2           Al2 tau(   2) = (   0.5060000   0.4940000   0.0000000  )
         3           Al3 tau(   3) = (   0.5060000   0.0000000   0.5000720  )
         4           Al4 tau(   4) = (   0.0000000   0.4940000   0.5000720  )

     number of k points=   125  Marzari-Vanderbilt smearing, width (Ry)=  0.0200

     Number of k-points >= 100: set verbosity='high' to print them.

     Dense  grid:    21209 G-vectors     FFT dimensions: (  36,  36,  36)

     Smooth grid:    12441 G-vectors     FFT dimensions: (  30,  30,  30)

     Estimated max dynamical RAM per process >      11.65Mb

     Estimated total allocated dynamical RAM >      46.61Mb

     Initial potential from superposition of free atoms

     starting charge   11.99084, renormalised to   12.00000
     Starting wfc are   16 randomized atomic wfcs
     Checking if some PAW data can be deallocated... 

     total cpu time spent up to now is        4.1 secs

     per-process dynamical memory:    21.2 Mb

     Self-consistent Calculation

     iteration #  1     ecut=    35.00 Ry     beta=0.30
     Davidson diagonalization with overlap
     ethr =  1.00E-02,  avg # of iterations =  3.4

     Threshold (ethr) on eigenvalues was too large:
     Diagonalizing with lowered threshold

     Davidson diagonalization with overlap
     ethr =  1.95E-04,  avg # of iterations =  3.8

     total cpu time spent up to now is       22.3 secs

     total energy              =    -158.01489465 Ry
     Harris-Foulkes estimate   =    -158.01692663 Ry
     estimated scf accuracy    <       0.02261818 Ry

     iteration #  2     ecut=    35.00 Ry     beta=0.30
     Davidson diagonalization with overlap
     ethr =  1.88E-04,  avg # of iterations =  1.0

     total cpu time spent up to now is       25.3 secs

     total energy              =    -158.01066811 Ry
     Harris-Foulkes estimate   =    -158.01500296 Ry
     estimated scf accuracy    <       0.01408648 Ry

     iteration #  3     ecut=    35.00 Ry     beta=0.30
     Davidson diagonalization with overlap
     ethr =  1.17E-04,  avg # of iterations =  1.0

     total cpu time spent up to now is       28.2 secs

     total energy              =    -158.01093397 Ry
     Harris-Foulkes estimate   =    -158.01092139 Ry
     estimated scf accuracy    <       0.00003597 Ry

     iteration #  4     ecut=    35.00 Ry     beta=0.30
     Davidson diagonalization with overlap
     c_bands:  1 eigenvalues not converged
     ethr =  3.00E-07,  avg # of iterations =  4.6

     total cpu time spent up to now is       37.9 secs

     total energy              =    -158.01100997 Ry
     Harris-Foulkes estimate   =    -158.01099325 Ry
     estimated scf accuracy    <       0.00001707 Ry

     iteration #  5     ecut=    35.00 Ry     beta=0.30
     Davidson diagonalization with overlap
     ethr =  1.42E-07,  avg # of iterations =  1.1

     total cpu time spent up to now is       46.5 secs

     total energy              =    -158.01100810 Ry
     Harris-Foulkes estimate   =    -158.01101086 Ry
     estimated scf accuracy    <       0.00000610 Ry

     iteration #  6     ecut=    35.00 Ry     beta=0.30
     Davidson diagonalization with overlap
     ethr =  5.09E-08,  avg # of iterations =  2.0

     total cpu time spent up to now is       49.9 secs

     End of self-consistent calculation

     Number of k-points >= 100: set verbosity='high' to print the bands.

     the Fermi energy is     7.9837 ev

!    total energy              =    -158.01100876 Ry
     Harris-Foulkes estimate   =    -158.01100893 Ry
     estimated scf accuracy    <       0.00000006 Ry

     total all-electron energy =     -1942.582137 Ry

     The total energy is the sum of the following terms:

     one-electron contribution =      12.67603376 Ry
     hartree contribution      =       0.02434189 Ry
     xc contribution           =     -10.36866751 Ry
     ewald contribution        =     -21.63223303 Ry
     one-center paw contrib.   =    -138.71020043 Ry
     smearing contrib. (-TS)   =      -0.00028342 Ry

     convergence has been achieved in   6 iterations

     Forces acting on atoms (Ry/au):

     atom    1 type  1   force =     0.00000000    0.00000000    0.00000000
     atom    2 type  2   force =     0.00000000    0.00000000    0.00000000
     atom    3 type  3   force =     0.00000000    0.00000000    0.00000000
     atom    4 type  4   force =     0.00000000    0.00000000    0.00000000

     Total force =     0.000000     Total SCF correction =     0.000000


     entering subroutine stress ...

          total   stress  (Ry/bohr**3)                   (kbar)     P=    0.04
  -0.00007673   0.00000000   0.00000000        -11.29      0.00      0.00
   0.00000000   0.00007651   0.00000000          0.00     11.26      0.00
   0.00000000   0.00000000   0.00000112          0.00      0.00      0.17


     Writing output data file template.save

     init_run     :      2.94s CPU      3.01s WALL (       1 calls)
     electrons    :     43.28s CPU     45.86s WALL (       1 calls)
     forces       :      0.87s CPU      0.87s WALL (       1 calls)
     stress       :      2.05s CPU      2.13s WALL (       1 calls)

     Called by init_run:
     wfcinit      :      1.76s CPU      1.81s WALL (       1 calls)
     potinit      :      0.32s CPU      0.34s WALL (       1 calls)

     Called by electrons:
     c_bands      :     36.04s CPU     38.35s WALL (       7 calls)
     sum_band     :      6.36s CPU      6.59s WALL (       7 calls)
     v_of_rho     :      0.11s CPU      0.11s WALL (       7 calls)
     newd         :      0.20s CPU      0.20s WALL (       7 calls)
     PAW_pot      :      0.62s CPU      0.69s WALL (       7 calls)
     mix_rho      :      0.02s CPU      0.01s WALL (       7 calls)

     Called by c_bands:
     init_us_2    :      0.74s CPU      0.76s WALL (    2125 calls)
     cegterg      :     35.08s CPU     37.29s WALL (     875 calls)

     Called by sum_band:
     sum_band:bec :      0.03s CPU      0.02s WALL (     875 calls)
     addusdens    :      0.23s CPU      0.25s WALL (       7 calls)

     Called by *egterg:
     h_psi        :     32.13s CPU     34.09s WALL (    3114 calls)
     s_psi        :      0.54s CPU      0.60s WALL (    3114 calls)
     g_psi        :      0.05s CPU      0.08s WALL (    2114 calls)
     cdiaghg      :      1.27s CPU      1.32s WALL (    2864 calls)

     Called by h_psi:
     h_psi:pot    :     32.07s CPU     34.01s WALL (    3114 calls)
     h_psi:calbec :      0.94s CPU      0.98s WALL (    3114 calls)
     vloc_psi     :     30.54s CPU     32.36s WALL (    3114 calls)
     add_vuspsi   :      0.57s CPU      0.65s WALL (    3114 calls)

     General routines
     calbec       :      1.43s CPU      1.57s WALL (    4614 calls)
     fft          :      0.16s CPU      0.16s WALL (     137 calls)
     ffts         :      0.02s CPU      0.01s WALL (      14 calls)
     fftw         :     34.41s CPU     36.33s WALL (   57656 calls)
     interpolate  :      0.04s CPU      0.03s WALL (      14 calls)
     davcio       :      0.00s CPU      0.01s WALL (     125 calls)

     Parallel routines
     fft_scatter  :      9.62s CPU     10.31s WALL (   57807 calls)

     PWSCF        :    50.35s CPU        53.24s WALL


   This run was terminated on:  11: 3: 4  30May2017            

=------------------------------------------------------------------------------=
   JOB DONE.
=------------------------------------------------------------------------------=
