
     Program PWSCF v.6.0 (svn rev. 13079) starts on 30May2017 at 10:58:47 

     This program is part of the open-source Quantum ESPRESSO suite
     for quantum simulation of materials; please cite
         "P. Giannozzi et al., J. Phys.:Condens. Matter 21 395502 (2009);
          URL http://www.quantum-espresso.org", 
     in publications or presentations arising from this work. More details at
     http://www.quantum-espresso.org/quote

     Parallel version (MPI), running on     4 processors
     R & G space division:  proc/nbgrp/npool/nimage =       4
     Waiting for input...
     Reading input from standard input
Warning: card &IONS ignored
Warning: card ION_DYNAMICS='BFGS', ignored
Warning: card / ignored
Warning: card &CELL ignored
Warning: card CELL_DYNAMICS='BFGS', ignored
Warning: card PRESS = 0.0, ignored
Warning: card CELL_FACTOR = 2.0, ignored
Warning: card / ignored

     Current dimensions of program PWSCF are:
     Max number of different atomic species (ntypx) = 10
     Max number of k-points (npk) =  40000
     Max angular momentum in pseudopotentials (lmaxx) =  3
               file Al.pbe-nl-kjpaw_psl.1.0.0.UPF: wavefunction(s)  3S 3P renormalized
               file Al.pbe-nl-kjpaw_psl.1.0.0.UPF: wavefunction(s)  3S 3P renormalized
               file Al.pbe-nl-kjpaw_psl.1.0.0.UPF: wavefunction(s)  3S 3P renormalized
               file Al.pbe-nl-kjpaw_psl.1.0.0.UPF: wavefunction(s)  3S 3P renormalized

     Subspace diagonalization in iterative solution of the eigenvalue problem:
     a serial algorithm will be used


     Parallelization info
     --------------------
     sticks:   dense  smooth     PW     G-vecs:    dense   smooth      PW
     Min         231     163     48                 5303     3113     524
     Max         233     164     49                 5306     3114     527
     Sum         929     653    193                21219    12453    2103



     bravais-lattice index     =            0
     lattice parameter (alat)  =       7.6300  a.u.
     unit-cell volume          =     444.1949 (a.u.)^3
     number of atoms/cell      =            4
     number of atomic types    =            4
     number of electrons       =        12.00
     number of Kohn-Sham states=           10
     kinetic-energy cutoff     =      35.0000  Ry
     charge density cutoff     =     200.0000  Ry
     convergence threshold     =      1.0E-06
     mixing beta               =       0.3000
     number of iterations used =           10  TF        mixing
     Exchange-correlation      =  SLA  PW   PBX  PBC ( 1  4  3  4 0 0)

     celldm(1)=   7.630000  celldm(2)=   0.000000  celldm(3)=   0.000000
     celldm(4)=   0.000000  celldm(5)=   0.000000  celldm(6)=   0.000000

     crystal axes: (cart. coord. in units of alat)
               a(1) = (   1.004000   0.000000   0.000000 )  
               a(2) = (   0.000000   0.996000   0.000000 )  
               a(3) = (   0.000000   0.000000   1.000016 )  

     reciprocal axes: (cart. coord. in units 2 pi/alat)
               b(1) = (  0.996016  0.000000  0.000000 )  
               b(2) = (  0.000000  1.004016  0.000000 )  
               b(3) = (  0.000000  0.000000  0.999984 )  


     PseudoPot. # 1 for Al read from file:
     /home/ben/espresso/pp/Al.pbe-nl-kjpaw_psl.1.0.0.UPF
     MD5 check sum: 339dbea23cf3ab9a065ad45c0f9085d7
     Pseudo is Projector augmented-wave + core cor, Zval =  3.0
     Generated using "atomic" code by A. Dal Corso  v.5.1
     Shape of augmentation charge: PSQ
     Using radial grid of 1135 points,  4 beta functions with: 
                l(1) =   0
                l(2) =   0
                l(3) =   1
                l(4) =   1
     Q(r) pseudized with 0 coefficients 


     PseudoPot. # 2 for Al read from file:
     /home/ben/espresso/pp/Al.pbe-nl-kjpaw_psl.1.0.0.UPF
     MD5 check sum: 339dbea23cf3ab9a065ad45c0f9085d7
     Pseudo is Projector augmented-wave + core cor, Zval =  3.0
     Generated using "atomic" code by A. Dal Corso  v.5.1
     Shape of augmentation charge: PSQ
     Using radial grid of 1135 points,  4 beta functions with: 
                l(1) =   0
                l(2) =   0
                l(3) =   1
                l(4) =   1
     Q(r) pseudized with 0 coefficients 


     PseudoPot. # 3 for Al read from file:
     /home/ben/espresso/pp/Al.pbe-nl-kjpaw_psl.1.0.0.UPF
     MD5 check sum: 339dbea23cf3ab9a065ad45c0f9085d7
     Pseudo is Projector augmented-wave + core cor, Zval =  3.0
     Generated using "atomic" code by A. Dal Corso  v.5.1
     Shape of augmentation charge: PSQ
     Using radial grid of 1135 points,  4 beta functions with: 
                l(1) =   0
                l(2) =   0
                l(3) =   1
                l(4) =   1
     Q(r) pseudized with 0 coefficients 


     PseudoPot. # 4 for Al read from file:
     /home/ben/espresso/pp/Al.pbe-nl-kjpaw_psl.1.0.0.UPF
     MD5 check sum: 339dbea23cf3ab9a065ad45c0f9085d7
     Pseudo is Projector augmented-wave + core cor, Zval =  3.0
     Generated using "atomic" code by A. Dal Corso  v.5.1
     Shape of augmentation charge: PSQ
     Using radial grid of 1135 points,  4 beta functions with: 
                l(1) =   0
                l(2) =   0
                l(3) =   1
                l(4) =   1
     Q(r) pseudized with 0 coefficients 


     atomic species   valence    mass     pseudopotential
        Al1            3.00    26.98200     Al( 1.00)
        Al2            3.00    26.98200     Al( 1.00)
        Al3            3.00    26.98200     Al( 1.00)
        Al4            3.00    26.98200     Al( 1.00)

      8 Sym. Ops., with inversion, found



   Cartesian axes

     site n.     atom                  positions (alat units)
         1           Al1 tau(   1) = (   0.0000000   0.0000000   0.0000000  )
         2           Al2 tau(   2) = (   0.5020000   0.4980000   0.0000000  )
         3           Al3 tau(   3) = (   0.5020000   0.0000000   0.5000080  )
         4           Al4 tau(   4) = (   0.0000000   0.4980000   0.5000080  )

     number of k points=   125  Marzari-Vanderbilt smearing, width (Ry)=  0.0200

     Number of k-points >= 100: set verbosity='high' to print them.

     Dense  grid:    21219 G-vectors     FFT dimensions: (  36,  36,  36)

     Smooth grid:    12453 G-vectors     FFT dimensions: (  30,  30,  30)

     Estimated max dynamical RAM per process >      11.65Mb

     Estimated total allocated dynamical RAM >      46.61Mb

     Initial potential from superposition of free atoms

     starting charge   11.99084, renormalised to   12.00000
     Starting wfc are   16 randomized atomic wfcs
     Checking if some PAW data can be deallocated... 

     total cpu time spent up to now is       11.4 secs

     per-process dynamical memory:    21.3 Mb

     Self-consistent Calculation

     iteration #  1     ecut=    35.00 Ry     beta=0.30
     Davidson diagonalization with overlap
     ethr =  1.00E-02,  avg # of iterations =  3.3

     Threshold (ethr) on eigenvalues was too large:
     Diagonalizing with lowered threshold

     Davidson diagonalization with overlap
     ethr =  1.95E-04,  avg # of iterations =  3.9

     total cpu time spent up to now is       19.4 secs

     total energy              =    -158.01525146 Ry
     Harris-Foulkes estimate   =    -158.01728967 Ry
     estimated scf accuracy    <       0.02265918 Ry

     iteration #  2     ecut=    35.00 Ry     beta=0.30
     Davidson diagonalization with overlap
     ethr =  1.89E-04,  avg # of iterations =  1.0

     total cpu time spent up to now is       22.3 secs

     total energy              =    -158.01100769 Ry
     Harris-Foulkes estimate   =    -158.01535770 Ry
     estimated scf accuracy    <       0.01411678 Ry

     iteration #  3     ecut=    35.00 Ry     beta=0.30
     Davidson diagonalization with overlap
     ethr =  1.18E-04,  avg # of iterations =  1.0

     total cpu time spent up to now is       31.6 secs

     total energy              =    -158.01127473 Ry
     Harris-Foulkes estimate   =    -158.01126123 Ry
     estimated scf accuracy    <       0.00003588 Ry

     iteration #  4     ecut=    35.00 Ry     beta=0.30
     Davidson diagonalization with overlap
     ethr =  2.99E-07,  avg # of iterations =  4.0

     total cpu time spent up to now is       40.3 secs

     total energy              =    -158.01135069 Ry
     Harris-Foulkes estimate   =    -158.01133417 Ry
     estimated scf accuracy    <       0.00001688 Ry

     iteration #  5     ecut=    35.00 Ry     beta=0.30
     Davidson diagonalization with overlap
     ethr =  1.41E-07,  avg # of iterations =  1.0

     total cpu time spent up to now is       43.3 secs

     total energy              =    -158.01134882 Ry
     Harris-Foulkes estimate   =    -158.01135157 Ry
     estimated scf accuracy    <       0.00000604 Ry

     iteration #  6     ecut=    35.00 Ry     beta=0.30
     Davidson diagonalization with overlap
     ethr =  5.03E-08,  avg # of iterations =  2.0

     total cpu time spent up to now is       46.7 secs

     End of self-consistent calculation

     Number of k-points >= 100: set verbosity='high' to print the bands.

     the Fermi energy is     7.9916 ev

!    total energy              =    -158.01134945 Ry
     Harris-Foulkes estimate   =    -158.01134962 Ry
     estimated scf accuracy    <       0.00000006 Ry

     total all-electron energy =     -1942.582477 Ry

     The total energy is the sum of the following terms:

     one-electron contribution =      12.67568823 Ry
     hartree contribution      =       0.02434693 Ry
     xc contribution           =     -10.36853649 Ry
     ewald contribution        =     -21.63236080 Ry
     one-center paw contrib.   =    -138.70996834 Ry
     smearing contrib. (-TS)   =      -0.00051898 Ry

     convergence has been achieved in   6 iterations

     Forces acting on atoms (Ry/au):

     atom    1 type  1   force =     0.00000000    0.00000000    0.00000000
     atom    2 type  2   force =     0.00000000    0.00000000    0.00000000
     atom    3 type  3   force =     0.00000000    0.00000000    0.00000000
     atom    4 type  4   force =     0.00000000    0.00000000    0.00000000

     Total force =     0.000000     Total SCF correction =     0.000000


     entering subroutine stress ...

          total   stress  (Ry/bohr**3)                   (kbar)     P=   -0.37
  -0.00002465   0.00000000   0.00000000         -3.63      0.00      0.00
   0.00000000   0.00001952   0.00000000          0.00      2.87      0.00
   0.00000000   0.00000000  -0.00000248          0.00      0.00     -0.36


     Writing output data file template.save

     init_run     :      7.36s CPU      8.18s WALL (       1 calls)
     electrons    :     33.55s CPU     35.29s WALL (       1 calls)
     forces       :      0.84s CPU      0.86s WALL (       1 calls)
     stress       :      3.81s CPU      4.00s WALL (       1 calls)

     Called by init_run:
     wfcinit      :      3.64s CPU      4.07s WALL (       1 calls)
     potinit      :      1.06s CPU      1.24s WALL (       1 calls)

     Called by electrons:
     c_bands      :     27.65s CPU     29.15s WALL (       7 calls)
     sum_band     :      5.02s CPU      5.24s WALL (       7 calls)
     v_of_rho     :      0.14s CPU      0.16s WALL (       7 calls)
     newd         :      0.23s CPU      0.26s WALL (       7 calls)
     PAW_pot      :      0.76s CPU      0.84s WALL (       7 calls)
     mix_rho      :      0.01s CPU      0.01s WALL (       7 calls)

     Called by c_bands:
     init_us_2    :      0.74s CPU      0.76s WALL (    2125 calls)
     cegterg      :     26.81s CPU     28.27s WALL (     875 calls)

     Called by sum_band:
     sum_band:bec :      0.00s CPU      0.01s WALL (     875 calls)
     addusdens    :      0.20s CPU      0.22s WALL (       7 calls)

     Called by *egterg:
     h_psi        :     26.87s CPU     28.38s WALL (    3039 calls)
     s_psi        :      0.42s CPU      0.53s WALL (    3039 calls)
     g_psi        :      0.06s CPU      0.07s WALL (    2039 calls)
     cdiaghg      :      0.93s CPU      0.97s WALL (    2789 calls)

     Called by h_psi:
     h_psi:pot    :     26.80s CPU     28.31s WALL (    3039 calls)
     h_psi:calbec :      0.59s CPU      0.78s WALL (    3039 calls)
     vloc_psi     :     25.62s CPU     26.92s WALL (    3039 calls)
     add_vuspsi   :      0.56s CPU      0.60s WALL (    3039 calls)

     General routines
     calbec       :      1.02s CPU      1.27s WALL (    4539 calls)
     fft          :      0.26s CPU      0.31s WALL (     137 calls)
     ffts         :      0.02s CPU      0.01s WALL (      14 calls)
     fftw         :     28.42s CPU     29.92s WALL (   57478 calls)
     interpolate  :      0.02s CPU      0.03s WALL (      14 calls)
     davcio       :      0.01s CPU      0.01s WALL (     125 calls)

     Parallel routines
     fft_scatter  :      5.85s CPU      6.57s WALL (   57629 calls)

     PWSCF        :    49.41s CPU        52.63s WALL


   This run was terminated on:  10:59:40  30May2017            

=------------------------------------------------------------------------------=
   JOB DONE.
=------------------------------------------------------------------------------=
