
     Program PWSCF v.6.0 (svn rev. 13079) starts on 30May2017 at 11: 1:19 

     This program is part of the open-source Quantum ESPRESSO suite
     for quantum simulation of materials; please cite
         "P. Giannozzi et al., J. Phys.:Condens. Matter 21 395502 (2009);
          URL http://www.quantum-espresso.org", 
     in publications or presentations arising from this work. More details at
     http://www.quantum-espresso.org/quote

     Parallel version (MPI), running on     4 processors
     R & G space division:  proc/nbgrp/npool/nimage =       4
     Waiting for input...
     Reading input from standard input
Warning: card &IONS ignored
Warning: card ION_DYNAMICS='BFGS', ignored
Warning: card / ignored
Warning: card &CELL ignored
Warning: card CELL_DYNAMICS='BFGS', ignored
Warning: card PRESS = 0.0, ignored
Warning: card CELL_FACTOR = 2.0, ignored
Warning: card / ignored

     Current dimensions of program PWSCF are:
     Max number of different atomic species (ntypx) = 10
     Max number of k-points (npk) =  40000
     Max angular momentum in pseudopotentials (lmaxx) =  3
               file Al.pbe-nl-kjpaw_psl.1.0.0.UPF: wavefunction(s)  3S 3P renormalized
               file Al.pbe-nl-kjpaw_psl.1.0.0.UPF: wavefunction(s)  3S 3P renormalized
               file Al.pbe-nl-kjpaw_psl.1.0.0.UPF: wavefunction(s)  3S 3P renormalized
               file Al.pbe-nl-kjpaw_psl.1.0.0.UPF: wavefunction(s)  3S 3P renormalized

     Subspace diagonalization in iterative solution of the eigenvalue problem:
     a serial algorithm will be used


     Parallelization info
     --------------------
     sticks:   dense  smooth     PW     G-vecs:    dense   smooth      PW
     Min         231     162     48                 5302     3110     526
     Max         233     163     50                 5303     3111     527
     Sum         929     649    195                21211    12441    2105



     bravais-lattice index     =            0
     lattice parameter (alat)  =       7.6300  a.u.
     unit-cell volume          =     444.1949 (a.u.)^3
     number of atoms/cell      =            4
     number of atomic types    =            4
     number of electrons       =        12.00
     number of Kohn-Sham states=           10
     kinetic-energy cutoff     =      35.0000  Ry
     charge density cutoff     =     200.0000  Ry
     convergence threshold     =      1.0E-06
     mixing beta               =       0.3000
     number of iterations used =           10  TF        mixing
     Exchange-correlation      =  SLA  PW   PBX  PBC ( 1  4  3  4 0 0)

     celldm(1)=   7.630000  celldm(2)=   0.000000  celldm(3)=   0.000000
     celldm(4)=   0.000000  celldm(5)=   0.000000  celldm(6)=   0.000000

     crystal axes: (cart. coord. in units of alat)
               a(1) = (   1.010000   0.000000   0.000000 )  
               a(2) = (   0.000000   0.990000   0.000000 )  
               a(3) = (   0.000000   0.000000   1.000100 )  

     reciprocal axes: (cart. coord. in units 2 pi/alat)
               b(1) = (  0.990099  0.000000  0.000000 )  
               b(2) = (  0.000000  1.010101  0.000000 )  
               b(3) = (  0.000000  0.000000  0.999900 )  


     PseudoPot. # 1 for Al read from file:
     /home/ben/espresso/pp/Al.pbe-nl-kjpaw_psl.1.0.0.UPF
     MD5 check sum: 339dbea23cf3ab9a065ad45c0f9085d7
     Pseudo is Projector augmented-wave + core cor, Zval =  3.0
     Generated using "atomic" code by A. Dal Corso  v.5.1
     Shape of augmentation charge: PSQ
     Using radial grid of 1135 points,  4 beta functions with: 
                l(1) =   0
                l(2) =   0
                l(3) =   1
                l(4) =   1
     Q(r) pseudized with 0 coefficients 


     PseudoPot. # 2 for Al read from file:
     /home/ben/espresso/pp/Al.pbe-nl-kjpaw_psl.1.0.0.UPF
     MD5 check sum: 339dbea23cf3ab9a065ad45c0f9085d7
     Pseudo is Projector augmented-wave + core cor, Zval =  3.0
     Generated using "atomic" code by A. Dal Corso  v.5.1
     Shape of augmentation charge: PSQ
     Using radial grid of 1135 points,  4 beta functions with: 
                l(1) =   0
                l(2) =   0
                l(3) =   1
                l(4) =   1
     Q(r) pseudized with 0 coefficients 


     PseudoPot. # 3 for Al read from file:
     /home/ben/espresso/pp/Al.pbe-nl-kjpaw_psl.1.0.0.UPF
     MD5 check sum: 339dbea23cf3ab9a065ad45c0f9085d7
     Pseudo is Projector augmented-wave + core cor, Zval =  3.0
     Generated using "atomic" code by A. Dal Corso  v.5.1
     Shape of augmentation charge: PSQ
     Using radial grid of 1135 points,  4 beta functions with: 
                l(1) =   0
                l(2) =   0
                l(3) =   1
                l(4) =   1
     Q(r) pseudized with 0 coefficients 


     PseudoPot. # 4 for Al read from file:
     /home/ben/espresso/pp/Al.pbe-nl-kjpaw_psl.1.0.0.UPF
     MD5 check sum: 339dbea23cf3ab9a065ad45c0f9085d7
     Pseudo is Projector augmented-wave + core cor, Zval =  3.0
     Generated using "atomic" code by A. Dal Corso  v.5.1
     Shape of augmentation charge: PSQ
     Using radial grid of 1135 points,  4 beta functions with: 
                l(1) =   0
                l(2) =   0
                l(3) =   1
                l(4) =   1
     Q(r) pseudized with 0 coefficients 


     atomic species   valence    mass     pseudopotential
        Al1            3.00    26.98200     Al( 1.00)
        Al2            3.00    26.98200     Al( 1.00)
        Al3            3.00    26.98200     Al( 1.00)
        Al4            3.00    26.98200     Al( 1.00)

      8 Sym. Ops., with inversion, found



   Cartesian axes

     site n.     atom                  positions (alat units)
         1           Al1 tau(   1) = (   0.0000000   0.0000000   0.0000000  )
         2           Al2 tau(   2) = (   0.5050000   0.4950000   0.0000000  )
         3           Al3 tau(   3) = (   0.5050000   0.0000000   0.5000500  )
         4           Al4 tau(   4) = (   0.0000000   0.4950000   0.5000500  )

     number of k points=   125  Marzari-Vanderbilt smearing, width (Ry)=  0.0200

     Number of k-points >= 100: set verbosity='high' to print them.

     Dense  grid:    21211 G-vectors     FFT dimensions: (  36,  36,  36)

     Smooth grid:    12441 G-vectors     FFT dimensions: (  30,  30,  30)

     Estimated max dynamical RAM per process >      11.65Mb

     Estimated total allocated dynamical RAM >      46.60Mb

     Initial potential from superposition of free atoms

     starting charge   11.99084, renormalised to   12.00000
     Starting wfc are   16 randomized atomic wfcs
     Checking if some PAW data can be deallocated... 

     total cpu time spent up to now is        5.6 secs

     per-process dynamical memory:    21.2 Mb

     Self-consistent Calculation

     iteration #  1     ecut=    35.00 Ry     beta=0.30
     Davidson diagonalization with overlap
     ethr =  1.00E-02,  avg # of iterations =  3.4

     Threshold (ethr) on eigenvalues was too large:
     Diagonalizing with lowered threshold

     Davidson diagonalization with overlap
     ethr =  1.95E-04,  avg # of iterations =  3.8

     total cpu time spent up to now is       22.0 secs

     total energy              =    -158.01501969 Ry
     Harris-Foulkes estimate   =    -158.01705379 Ry
     estimated scf accuracy    <       0.02263186 Ry

     iteration #  2     ecut=    35.00 Ry     beta=0.30
     Davidson diagonalization with overlap
     ethr =  1.89E-04,  avg # of iterations =  1.0

     total cpu time spent up to now is       24.9 secs

     total energy              =    -158.01079053 Ry
     Harris-Foulkes estimate   =    -158.01512900 Ry
     estimated scf accuracy    <       0.01409487 Ry

     iteration #  3     ecut=    35.00 Ry     beta=0.30
     Davidson diagonalization with overlap
     ethr =  1.17E-04,  avg # of iterations =  1.1

     total cpu time spent up to now is       27.7 secs

     total energy              =    -158.01105635 Ry
     Harris-Foulkes estimate   =    -158.01104397 Ry
     estimated scf accuracy    <       0.00003604 Ry

     iteration #  4     ecut=    35.00 Ry     beta=0.30
     Davidson diagonalization with overlap
     ethr =  3.00E-07,  avg # of iterations =  4.4

     total cpu time spent up to now is       36.7 secs

     total energy              =    -158.01113247 Ry
     Harris-Foulkes estimate   =    -158.01111569 Ry
     estimated scf accuracy    <       0.00001720 Ry

     iteration #  5     ecut=    35.00 Ry     beta=0.30
     Davidson diagonalization with overlap
     ethr =  1.43E-07,  avg # of iterations =  1.0

     total cpu time spent up to now is       45.1 secs

     total energy              =    -158.01113059 Ry
     Harris-Foulkes estimate   =    -158.01113337 Ry
     estimated scf accuracy    <       0.00000617 Ry

     iteration #  6     ecut=    35.00 Ry     beta=0.30
     Davidson diagonalization with overlap
     ethr =  5.14E-08,  avg # of iterations =  2.0

     total cpu time spent up to now is       48.5 secs

     End of self-consistent calculation

     Number of k-points >= 100: set verbosity='high' to print the bands.

     the Fermi energy is     7.9863 ev

!    total energy              =    -158.01113126 Ry
     Harris-Foulkes estimate   =    -158.01113143 Ry
     estimated scf accuracy    <       0.00000006 Ry

     total all-electron energy =     -1942.582259 Ry

     The total energy is the sum of the following terms:

     one-electron contribution =      12.67589946 Ry
     hartree contribution      =       0.02434501 Ry
     xc contribution           =     -10.36862622 Ry
     ewald contribution        =     -21.63227695 Ry
     one-center paw contrib.   =    -138.71012668 Ry
     smearing contrib. (-TS)   =      -0.00034588 Ry

     convergence has been achieved in   6 iterations

     Forces acting on atoms (Ry/au):

     atom    1 type  1   force =     0.00000000    0.00000000    0.00000000
     atom    2 type  2   force =     0.00000000    0.00000000    0.00000000
     atom    3 type  3   force =     0.00000000    0.00000000    0.00000000
     atom    4 type  4   force =     0.00000000    0.00000000    0.00000000

     Total force =     0.000000     Total SCF correction =     0.000000


     entering subroutine stress ...

          total   stress  (Ry/bohr**3)                   (kbar)     P=   -0.09
  -0.00006239   0.00000000   0.00000000         -9.18      0.00      0.00
   0.00000000   0.00006069   0.00000000          0.00      8.93      0.00
   0.00000000   0.00000000  -0.00000014          0.00      0.00     -0.02


     Writing output data file template.save

     init_run     :      4.39s CPU      4.48s WALL (       1 calls)
     electrons    :     41.15s CPU     42.89s WALL (       1 calls)
     forces       :      0.74s CPU      0.74s WALL (       1 calls)
     stress       :      2.08s CPU      2.10s WALL (       1 calls)

     Called by init_run:
     wfcinit      :      3.15s CPU      3.21s WALL (       1 calls)
     potinit      :      0.34s CPU      0.34s WALL (       1 calls)

     Called by electrons:
     c_bands      :     34.69s CPU     36.19s WALL (       7 calls)
     sum_band     :      5.61s CPU      5.81s WALL (       7 calls)
     v_of_rho     :      0.10s CPU      0.12s WALL (       7 calls)
     newd         :      0.19s CPU      0.20s WALL (       7 calls)
     PAW_pot      :      0.62s CPU      0.65s WALL (       7 calls)
     mix_rho      :      0.02s CPU      0.01s WALL (       7 calls)

     Called by c_bands:
     init_us_2    :      0.73s CPU      0.78s WALL (    2125 calls)
     cegterg      :     33.70s CPU     35.19s WALL (     875 calls)

     Called by sum_band:
     sum_band:bec :      0.03s CPU      0.02s WALL (     875 calls)
     addusdens    :      0.20s CPU      0.22s WALL (       7 calls)

     Called by *egterg:
     h_psi        :     32.40s CPU     33.69s WALL (    3077 calls)
     s_psi        :      0.57s CPU      0.62s WALL (    3077 calls)
     g_psi        :      0.08s CPU      0.08s WALL (    2077 calls)
     cdiaghg      :      1.12s CPU      1.25s WALL (    2827 calls)

     Called by h_psi:
     h_psi:pot    :     32.36s CPU     33.61s WALL (    3077 calls)
     h_psi:calbec :      0.87s CPU      0.95s WALL (    3077 calls)
     vloc_psi     :     30.84s CPU     31.98s WALL (    3077 calls)
     add_vuspsi   :      0.62s CPU      0.66s WALL (    3077 calls)

     General routines
     calbec       :      1.15s CPU      1.33s WALL (    4577 calls)
     fft          :      0.16s CPU      0.16s WALL (     137 calls)
     ffts         :      0.00s CPU      0.01s WALL (      14 calls)
     fftw         :     34.14s CPU     35.30s WALL (   57548 calls)
     interpolate  :      0.01s CPU      0.02s WALL (      14 calls)
     davcio       :      0.00s CPU      0.01s WALL (     125 calls)

     Parallel routines
     fft_scatter  :      7.65s CPU      7.77s WALL (   57699 calls)

     PWSCF        :    49.64s CPU        51.67s WALL


   This run was terminated on:  11: 2:11  30May2017            

=------------------------------------------------------------------------------=
   JOB DONE.
=------------------------------------------------------------------------------=
