
     Program PWSCF v.6.0 (svn rev. 13079) starts on 30May2017 at 11: 4:50 

     This program is part of the open-source Quantum ESPRESSO suite
     for quantum simulation of materials; please cite
         "P. Giannozzi et al., J. Phys.:Condens. Matter 21 395502 (2009);
          URL http://www.quantum-espresso.org", 
     in publications or presentations arising from this work. More details at
     http://www.quantum-espresso.org/quote

     Parallel version (MPI), running on     4 processors
     R & G space division:  proc/nbgrp/npool/nimage =       4
     Waiting for input...
     Reading input from standard input
Warning: card &IONS ignored
Warning: card ION_DYNAMICS='BFGS', ignored
Warning: card / ignored
Warning: card &CELL ignored
Warning: card CELL_DYNAMICS='BFGS', ignored
Warning: card PRESS = 0.0, ignored
Warning: card CELL_FACTOR = 2.0, ignored
Warning: card / ignored

     Current dimensions of program PWSCF are:
     Max number of different atomic species (ntypx) = 10
     Max number of k-points (npk) =  40000
     Max angular momentum in pseudopotentials (lmaxx) =  3
               file Al.pbe-nl-kjpaw_psl.1.0.0.UPF: wavefunction(s)  3S 3P renormalized
               file Al.pbe-nl-kjpaw_psl.1.0.0.UPF: wavefunction(s)  3S 3P renormalized
               file Al.pbe-nl-kjpaw_psl.1.0.0.UPF: wavefunction(s)  3S 3P renormalized
               file Al.pbe-nl-kjpaw_psl.1.0.0.UPF: wavefunction(s)  3S 3P renormalized

     Subspace diagonalization in iterative solution of the eigenvalue problem:
     a serial algorithm will be used


     Parallelization info
     --------------------
     sticks:   dense  smooth     PW     G-vecs:    dense   smooth      PW
     Min         230     162     49                 5303     3106     525
     Max         231     164     51                 5305     3107     526
     Sum         923     653    199                21217    12425    2101



     bravais-lattice index     =            0
     lattice parameter (alat)  =       7.6300  a.u.
     unit-cell volume          =     444.1949 (a.u.)^3
     number of atoms/cell      =            4
     number of atomic types    =            4
     number of electrons       =        12.00
     number of Kohn-Sham states=           10
     kinetic-energy cutoff     =      35.0000  Ry
     charge density cutoff     =     200.0000  Ry
     convergence threshold     =      1.0E-06
     mixing beta               =       0.3000
     number of iterations used =           10  TF        mixing
     Exchange-correlation      =  SLA  PW   PBX  PBC ( 1  4  3  4 0 0)

     celldm(1)=   7.630000  celldm(2)=   0.000000  celldm(3)=   0.000000
     celldm(4)=   0.000000  celldm(5)=   0.000000  celldm(6)=   0.000000

     crystal axes: (cart. coord. in units of alat)
               a(1) = (   1.018000   0.000000   0.000000 )  
               a(2) = (   0.000000   0.982000   0.000000 )  
               a(3) = (   0.000000   0.000000   1.000324 )  

     reciprocal axes: (cart. coord. in units 2 pi/alat)
               b(1) = (  0.982318  0.000000  0.000000 )  
               b(2) = (  0.000000  1.018330  0.000000 )  
               b(3) = (  0.000000  0.000000  0.999676 )  


     PseudoPot. # 1 for Al read from file:
     /home/ben/espresso/pp/Al.pbe-nl-kjpaw_psl.1.0.0.UPF
     MD5 check sum: 339dbea23cf3ab9a065ad45c0f9085d7
     Pseudo is Projector augmented-wave + core cor, Zval =  3.0
     Generated using "atomic" code by A. Dal Corso  v.5.1
     Shape of augmentation charge: PSQ
     Using radial grid of 1135 points,  4 beta functions with: 
                l(1) =   0
                l(2) =   0
                l(3) =   1
                l(4) =   1
     Q(r) pseudized with 0 coefficients 


     PseudoPot. # 2 for Al read from file:
     /home/ben/espresso/pp/Al.pbe-nl-kjpaw_psl.1.0.0.UPF
     MD5 check sum: 339dbea23cf3ab9a065ad45c0f9085d7
     Pseudo is Projector augmented-wave + core cor, Zval =  3.0
     Generated using "atomic" code by A. Dal Corso  v.5.1
     Shape of augmentation charge: PSQ
     Using radial grid of 1135 points,  4 beta functions with: 
                l(1) =   0
                l(2) =   0
                l(3) =   1
                l(4) =   1
     Q(r) pseudized with 0 coefficients 


     PseudoPot. # 3 for Al read from file:
     /home/ben/espresso/pp/Al.pbe-nl-kjpaw_psl.1.0.0.UPF
     MD5 check sum: 339dbea23cf3ab9a065ad45c0f9085d7
     Pseudo is Projector augmented-wave + core cor, Zval =  3.0
     Generated using "atomic" code by A. Dal Corso  v.5.1
     Shape of augmentation charge: PSQ
     Using radial grid of 1135 points,  4 beta functions with: 
                l(1) =   0
                l(2) =   0
                l(3) =   1
                l(4) =   1
     Q(r) pseudized with 0 coefficients 


     PseudoPot. # 4 for Al read from file:
     /home/ben/espresso/pp/Al.pbe-nl-kjpaw_psl.1.0.0.UPF
     MD5 check sum: 339dbea23cf3ab9a065ad45c0f9085d7
     Pseudo is Projector augmented-wave + core cor, Zval =  3.0
     Generated using "atomic" code by A. Dal Corso  v.5.1
     Shape of augmentation charge: PSQ
     Using radial grid of 1135 points,  4 beta functions with: 
                l(1) =   0
                l(2) =   0
                l(3) =   1
                l(4) =   1
     Q(r) pseudized with 0 coefficients 


     atomic species   valence    mass     pseudopotential
        Al1            3.00    26.98200     Al( 1.00)
        Al2            3.00    26.98200     Al( 1.00)
        Al3            3.00    26.98200     Al( 1.00)
        Al4            3.00    26.98200     Al( 1.00)

      8 Sym. Ops., with inversion, found



   Cartesian axes

     site n.     atom                  positions (alat units)
         1           Al1 tau(   1) = (   0.0000000   0.0000000   0.0000000  )
         2           Al2 tau(   2) = (   0.5090000   0.4910000   0.0000000  )
         3           Al3 tau(   3) = (   0.5090000   0.0000000   0.5001621  )
         4           Al4 tau(   4) = (   0.0000000   0.4910000   0.5001621  )

     number of k points=   125  Marzari-Vanderbilt smearing, width (Ry)=  0.0200

     Number of k-points >= 100: set verbosity='high' to print them.

     Dense  grid:    21217 G-vectors     FFT dimensions: (  36,  36,  36)

     Smooth grid:    12425 G-vectors     FFT dimensions: (  30,  30,  30)

     Estimated max dynamical RAM per process >      11.65Mb

     Estimated total allocated dynamical RAM >      46.61Mb

     Initial potential from superposition of free atoms

     starting charge   11.99084, renormalised to   12.00000
     Starting wfc are   16 randomized atomic wfcs
     Checking if some PAW data can be deallocated... 

     total cpu time spent up to now is        4.5 secs

     per-process dynamical memory:    21.2 Mb

     Self-consistent Calculation

     iteration #  1     ecut=    35.00 Ry     beta=0.30
     Davidson diagonalization with overlap
     ethr =  1.00E-02,  avg # of iterations =  3.4

     Threshold (ethr) on eigenvalues was too large:
     Diagonalizing with lowered threshold

     Davidson diagonalization with overlap
     ethr =  1.94E-04,  avg # of iterations =  3.6

     total cpu time spent up to now is       23.0 secs

     total energy              =    -158.01434272 Ry
     Harris-Foulkes estimate   =    -158.01636780 Ry
     estimated scf accuracy    <       0.02256685 Ry

     iteration #  2     ecut=    35.00 Ry     beta=0.30
     Davidson diagonalization with overlap
     ethr =  1.88E-04,  avg # of iterations =  1.0

     total cpu time spent up to now is       26.0 secs

     total energy              =    -158.01013653 Ry
     Harris-Foulkes estimate   =    -158.01445567 Ry
     estimated scf accuracy    <       0.01405174 Ry

     iteration #  3     ecut=    35.00 Ry     beta=0.30
     Davidson diagonalization with overlap
     ethr =  1.17E-04,  avg # of iterations =  1.1

     total cpu time spent up to now is       29.3 secs

     total energy              =    -158.01040392 Ry
     Harris-Foulkes estimate   =    -158.01039196 Ry
     estimated scf accuracy    <       0.00003586 Ry

     iteration #  4     ecut=    35.00 Ry     beta=0.30
     Davidson diagonalization with overlap
     c_bands:  1 eigenvalues not converged
     c_bands:  1 eigenvalues not converged
     ethr =  2.99E-07,  avg # of iterations =  4.9

     total cpu time spent up to now is       44.7 secs

     total energy              =    -158.01047876 Ry
     Harris-Foulkes estimate   =    -158.01046199 Ry
     estimated scf accuracy    <       0.00001712 Ry

     iteration #  5     ecut=    35.00 Ry     beta=0.30
     Davidson diagonalization with overlap
     ethr =  1.43E-07,  avg # of iterations =  1.3

     total cpu time spent up to now is       47.9 secs

     total energy              =    -158.01047697 Ry
     Harris-Foulkes estimate   =    -158.01047968 Ry
     estimated scf accuracy    <       0.00000606 Ry

     iteration #  6     ecut=    35.00 Ry     beta=0.30
     Davidson diagonalization with overlap
     ethr =  5.05E-08,  avg # of iterations =  2.0

     total cpu time spent up to now is       51.5 secs

     End of self-consistent calculation

     Number of k-points >= 100: set verbosity='high' to print the bands.

     the Fermi energy is     7.9747 ev

!    total energy              =    -158.01047764 Ry
     Harris-Foulkes estimate   =    -158.01047781 Ry
     estimated scf accuracy    <       0.00000007 Ry

     total all-electron energy =     -1942.581605 Ry

     The total energy is the sum of the following terms:

     one-electron contribution =      12.67671080 Ry
     hartree contribution      =       0.02432418 Ry
     xc contribution           =     -10.36881524 Ry
     ewald contribution        =     -21.63205342 Ry
     one-center paw contrib.   =    -138.71047292 Ry
     smearing contrib. (-TS)   =      -0.00017103 Ry

     convergence has been achieved in   6 iterations

     Forces acting on atoms (Ry/au):

     atom    1 type  1   force =     0.00000000    0.00000000    0.00000000
     atom    2 type  2   force =     0.00000000    0.00000000    0.00000000
     atom    3 type  3   force =     0.00000000    0.00000000    0.00000000
     atom    4 type  4   force =     0.00000000    0.00000000    0.00000000

     Total force =     0.000000     Total SCF correction =     0.000000


     entering subroutine stress ...

          total   stress  (Ry/bohr**3)                   (kbar)     P=    0.57
  -0.00012023   0.00000000   0.00000000        -17.69      0.00      0.00
   0.00000000   0.00012475   0.00000000          0.00     18.35      0.00
   0.00000000   0.00000000   0.00000711          0.00      0.00      1.05


     Writing output data file template.save

     init_run     :      3.15s CPU      3.29s WALL (       1 calls)
     electrons    :     43.47s CPU     47.00s WALL (       1 calls)
     forces       :      0.84s CPU      0.87s WALL (       1 calls)
     stress       :      2.22s CPU      2.28s WALL (       1 calls)

     Called by init_run:
     wfcinit      :      1.91s CPU      2.00s WALL (       1 calls)
     potinit      :      0.33s CPU      0.34s WALL (       1 calls)

     Called by electrons:
     c_bands      :     38.49s CPU     41.78s WALL (       7 calls)
     sum_band     :      4.32s CPU      4.54s WALL (       7 calls)
     v_of_rho     :      0.09s CPU      0.10s WALL (       7 calls)
     newd         :      0.14s CPU      0.15s WALL (       7 calls)
     PAW_pot      :      0.51s CPU      0.52s WALL (       7 calls)
     mix_rho      :      0.01s CPU      0.01s WALL (       7 calls)

     Called by c_bands:
     init_us_2    :      0.67s CPU      0.69s WALL (    2125 calls)
     cegterg      :     37.55s CPU     40.72s WALL (     875 calls)

     Called by sum_band:
     sum_band:bec :      0.02s CPU      0.01s WALL (     875 calls)
     addusdens    :      0.16s CPU      0.17s WALL (       7 calls)

     Called by *egterg:
     h_psi        :     34.13s CPU     37.00s WALL (    3156 calls)
     s_psi        :      0.69s CPU      0.69s WALL (    3156 calls)
     g_psi        :      0.11s CPU      0.10s WALL (    2156 calls)
     cdiaghg      :      1.44s CPU      1.56s WALL (    2906 calls)

     Called by h_psi:
     h_psi:pot    :     34.08s CPU     36.92s WALL (    3156 calls)
     h_psi:calbec :      0.98s CPU      1.05s WALL (    3156 calls)
     vloc_psi     :     32.42s CPU     35.09s WALL (    3156 calls)
     add_vuspsi   :      0.65s CPU      0.76s WALL (    3156 calls)

     General routines
     calbec       :      1.44s CPU      1.53s WALL (    4656 calls)
     fft          :      0.10s CPU      0.12s WALL (     137 calls)
     ffts         :      0.01s CPU      0.01s WALL (      14 calls)
     fftw         :     34.57s CPU     37.25s WALL (   57698 calls)
     interpolate  :      0.02s CPU      0.02s WALL (      14 calls)
     davcio       :      0.00s CPU      0.01s WALL (     125 calls)

     Parallel routines
     fft_scatter  :      8.54s CPU      9.40s WALL (   57849 calls)

     PWSCF        :    50.99s CPU        54.94s WALL


   This run was terminated on:  11: 5:45  30May2017            

=------------------------------------------------------------------------------=
   JOB DONE.
=------------------------------------------------------------------------------=
