
     Program PWSCF v.6.0 (svn rev. 13079) starts on 30May2017 at 10:59:40 

     This program is part of the open-source Quantum ESPRESSO suite
     for quantum simulation of materials; please cite
         "P. Giannozzi et al., J. Phys.:Condens. Matter 21 395502 (2009);
          URL http://www.quantum-espresso.org", 
     in publications or presentations arising from this work. More details at
     http://www.quantum-espresso.org/quote

     Parallel version (MPI), running on     4 processors
     R & G space division:  proc/nbgrp/npool/nimage =       4
     Waiting for input...
     Reading input from standard input
Warning: card &IONS ignored
Warning: card ION_DYNAMICS='BFGS', ignored
Warning: card / ignored
Warning: card &CELL ignored
Warning: card CELL_DYNAMICS='BFGS', ignored
Warning: card PRESS = 0.0, ignored
Warning: card CELL_FACTOR = 2.0, ignored
Warning: card / ignored

     Current dimensions of program PWSCF are:
     Max number of different atomic species (ntypx) = 10
     Max number of k-points (npk) =  40000
     Max angular momentum in pseudopotentials (lmaxx) =  3
               file Al.pbe-nl-kjpaw_psl.1.0.0.UPF: wavefunction(s)  3S 3P renormalized
               file Al.pbe-nl-kjpaw_psl.1.0.0.UPF: wavefunction(s)  3S 3P renormalized
               file Al.pbe-nl-kjpaw_psl.1.0.0.UPF: wavefunction(s)  3S 3P renormalized
               file Al.pbe-nl-kjpaw_psl.1.0.0.UPF: wavefunction(s)  3S 3P renormalized

     Subspace diagonalization in iterative solution of the eigenvalue problem:
     a serial algorithm will be used


     Parallelization info
     --------------------
     sticks:   dense  smooth     PW     G-vecs:    dense   smooth      PW
     Min         234     162     48                 5309     3108     526
     Max         235     163     50                 5310     3109     527
     Sum         937     649    195                21239    12433    2105



     bravais-lattice index     =            0
     lattice parameter (alat)  =       7.6300  a.u.
     unit-cell volume          =     444.1949 (a.u.)^3
     number of atoms/cell      =            4
     number of atomic types    =            4
     number of electrons       =        12.00
     number of Kohn-Sham states=           10
     kinetic-energy cutoff     =      35.0000  Ry
     charge density cutoff     =     200.0000  Ry
     convergence threshold     =      1.0E-06
     mixing beta               =       0.3000
     number of iterations used =           10  TF        mixing
     Exchange-correlation      =  SLA  PW   PBX  PBC ( 1  4  3  4 0 0)

     celldm(1)=   7.630000  celldm(2)=   0.000000  celldm(3)=   0.000000
     celldm(4)=   0.000000  celldm(5)=   0.000000  celldm(6)=   0.000000

     crystal axes: (cart. coord. in units of alat)
               a(1) = (   1.006000   0.000000   0.000000 )  
               a(2) = (   0.000000   0.994000   0.000000 )  
               a(3) = (   0.000000   0.000000   1.000036 )  

     reciprocal axes: (cart. coord. in units 2 pi/alat)
               b(1) = (  0.994036  0.000000  0.000000 )  
               b(2) = (  0.000000  1.006036  0.000000 )  
               b(3) = (  0.000000  0.000000  0.999964 )  


     PseudoPot. # 1 for Al read from file:
     /home/ben/espresso/pp/Al.pbe-nl-kjpaw_psl.1.0.0.UPF
     MD5 check sum: 339dbea23cf3ab9a065ad45c0f9085d7
     Pseudo is Projector augmented-wave + core cor, Zval =  3.0
     Generated using "atomic" code by A. Dal Corso  v.5.1
     Shape of augmentation charge: PSQ
     Using radial grid of 1135 points,  4 beta functions with: 
                l(1) =   0
                l(2) =   0
                l(3) =   1
                l(4) =   1
     Q(r) pseudized with 0 coefficients 


     PseudoPot. # 2 for Al read from file:
     /home/ben/espresso/pp/Al.pbe-nl-kjpaw_psl.1.0.0.UPF
     MD5 check sum: 339dbea23cf3ab9a065ad45c0f9085d7
     Pseudo is Projector augmented-wave + core cor, Zval =  3.0
     Generated using "atomic" code by A. Dal Corso  v.5.1
     Shape of augmentation charge: PSQ
     Using radial grid of 1135 points,  4 beta functions with: 
                l(1) =   0
                l(2) =   0
                l(3) =   1
                l(4) =   1
     Q(r) pseudized with 0 coefficients 


     PseudoPot. # 3 for Al read from file:
     /home/ben/espresso/pp/Al.pbe-nl-kjpaw_psl.1.0.0.UPF
     MD5 check sum: 339dbea23cf3ab9a065ad45c0f9085d7
     Pseudo is Projector augmented-wave + core cor, Zval =  3.0
     Generated using "atomic" code by A. Dal Corso  v.5.1
     Shape of augmentation charge: PSQ
     Using radial grid of 1135 points,  4 beta functions with: 
                l(1) =   0
                l(2) =   0
                l(3) =   1
                l(4) =   1
     Q(r) pseudized with 0 coefficients 


     PseudoPot. # 4 for Al read from file:
     /home/ben/espresso/pp/Al.pbe-nl-kjpaw_psl.1.0.0.UPF
     MD5 check sum: 339dbea23cf3ab9a065ad45c0f9085d7
     Pseudo is Projector augmented-wave + core cor, Zval =  3.0
     Generated using "atomic" code by A. Dal Corso  v.5.1
     Shape of augmentation charge: PSQ
     Using radial grid of 1135 points,  4 beta functions with: 
                l(1) =   0
                l(2) =   0
                l(3) =   1
                l(4) =   1
     Q(r) pseudized with 0 coefficients 


     atomic species   valence    mass     pseudopotential
        Al1            3.00    26.98200     Al( 1.00)
        Al2            3.00    26.98200     Al( 1.00)
        Al3            3.00    26.98200     Al( 1.00)
        Al4            3.00    26.98200     Al( 1.00)

      8 Sym. Ops., with inversion, found



   Cartesian axes

     site n.     atom                  positions (alat units)
         1           Al1 tau(   1) = (   0.0000000   0.0000000   0.0000000  )
         2           Al2 tau(   2) = (   0.5030000   0.4970000   0.0000000  )
         3           Al3 tau(   3) = (   0.5030000   0.0000000   0.5000180  )
         4           Al4 tau(   4) = (   0.0000000   0.4970000   0.5000180  )

     number of k points=   125  Marzari-Vanderbilt smearing, width (Ry)=  0.0200

     Number of k-points >= 100: set verbosity='high' to print them.

     Dense  grid:    21239 G-vectors     FFT dimensions: (  36,  36,  36)

     Smooth grid:    12433 G-vectors     FFT dimensions: (  30,  30,  30)

     Estimated max dynamical RAM per process >      11.65Mb

     Estimated total allocated dynamical RAM >      46.62Mb

     Initial potential from superposition of free atoms

     starting charge   11.99084, renormalised to   12.00000
     Starting wfc are   16 randomized atomic wfcs
     Checking if some PAW data can be deallocated... 

     total cpu time spent up to now is       11.1 secs

     per-process dynamical memory:    21.2 Mb

     Self-consistent Calculation

     iteration #  1     ecut=    35.00 Ry     beta=0.30
     Davidson diagonalization with overlap
     ethr =  1.00E-02,  avg # of iterations =  3.4

     Threshold (ethr) on eigenvalues was too large:
     Diagonalizing with lowered threshold

     Davidson diagonalization with overlap
     ethr =  1.95E-04,  avg # of iterations =  3.9

     total cpu time spent up to now is       18.1 secs

     total energy              =    -158.01519511 Ry
     Harris-Foulkes estimate   =    -158.01723268 Ry
     estimated scf accuracy    <       0.02265543 Ry

     iteration #  2     ecut=    35.00 Ry     beta=0.30
     Davidson diagonalization with overlap
     ethr =  1.89E-04,  avg # of iterations =  1.0

     total cpu time spent up to now is       20.8 secs

     total energy              =    -158.01095793 Ry
     Harris-Foulkes estimate   =    -158.01530439 Ry
     estimated scf accuracy    <       0.01411045 Ry

     iteration #  3     ecut=    35.00 Ry     beta=0.30
     Davidson diagonalization with overlap
     ethr =  1.18E-04,  avg # of iterations =  1.0

     total cpu time spent up to now is       23.3 secs

     total energy              =    -158.01122505 Ry
     Harris-Foulkes estimate   =    -158.01121227 Ry
     estimated scf accuracy    <       0.00003591 Ry

     iteration #  4     ecut=    35.00 Ry     beta=0.30
     Davidson diagonalization with overlap
     ethr =  2.99E-07,  avg # of iterations =  4.1

     total cpu time spent up to now is       36.4 secs

     total energy              =    -158.01130104 Ry
     Harris-Foulkes estimate   =    -158.01128433 Ry
     estimated scf accuracy    <       0.00001701 Ry

     iteration #  5     ecut=    35.00 Ry     beta=0.30
     Davidson diagonalization with overlap
     ethr =  1.42E-07,  avg # of iterations =  1.0

     total cpu time spent up to now is       40.3 secs

     total energy              =    -158.01129916 Ry
     Harris-Foulkes estimate   =    -158.01130193 Ry
     estimated scf accuracy    <       0.00000609 Ry

     iteration #  6     ecut=    35.00 Ry     beta=0.30
     Davidson diagonalization with overlap
     ethr =  5.07E-08,  avg # of iterations =  2.0

     total cpu time spent up to now is       43.3 secs

     End of self-consistent calculation

     Number of k-points >= 100: set verbosity='high' to print the bands.

     the Fermi energy is     7.9903 ev

!    total energy              =    -158.01129980 Ry
     Harris-Foulkes estimate   =    -158.01129997 Ry
     estimated scf accuracy    <       0.00000006 Ry

     total all-electron energy =     -1942.582428 Ry

     The total energy is the sum of the following terms:

     one-electron contribution =      12.67573361 Ry
     hartree contribution      =       0.02434724 Ry
     xc contribution           =     -10.36856036 Ry
     ewald contribution        =     -21.63234084 Ry
     one-center paw contrib.   =    -138.71000878 Ry
     smearing contrib. (-TS)   =      -0.00047068 Ry

     convergence has been achieved in   6 iterations

     Forces acting on atoms (Ry/au):

     atom    1 type  1   force =     0.00000000    0.00000000    0.00000000
     atom    2 type  2   force =     0.00000000    0.00000000    0.00000000
     atom    3 type  3   force =     0.00000000    0.00000000    0.00000000
     atom    4 type  4   force =     0.00000000    0.00000000    0.00000000

     Total force =     0.000000     Total SCF correction =     0.000000


     entering subroutine stress ...

          total   stress  (Ry/bohr**3)                   (kbar)     P=   -0.30
  -0.00003631   0.00000000   0.00000000         -5.34      0.00      0.00
   0.00000000   0.00003205   0.00000000          0.00      4.72      0.00
   0.00000000   0.00000000  -0.00000192          0.00      0.00     -0.28


     Writing output data file template.save

     init_run     :      7.42s CPU      7.79s WALL (       1 calls)
     electrons    :     31.47s CPU     32.20s WALL (       1 calls)
     forces       :      0.84s CPU      0.84s WALL (       1 calls)
     stress       :      2.03s CPU      2.07s WALL (       1 calls)

     Called by init_run:
     wfcinit      :      3.82s CPU      3.96s WALL (       1 calls)
     potinit      :      0.96s CPU      1.02s WALL (       1 calls)

     Called by electrons:
     c_bands      :     25.99s CPU     26.59s WALL (       7 calls)
     sum_band     :      4.67s CPU      4.77s WALL (       7 calls)
     v_of_rho     :      0.13s CPU      0.13s WALL (       7 calls)
     newd         :      0.21s CPU      0.22s WALL (       7 calls)
     PAW_pot      :      0.74s CPU      0.77s WALL (       7 calls)
     mix_rho      :      0.02s CPU      0.01s WALL (       7 calls)

     Called by c_bands:
     init_us_2    :      0.67s CPU      0.65s WALL (    2125 calls)
     cegterg      :     25.26s CPU     25.88s WALL (     875 calls)

     Called by sum_band:
     sum_band:bec :      0.01s CPU      0.01s WALL (     875 calls)
     addusdens    :      0.22s CPU      0.22s WALL (       7 calls)

     Called by *egterg:
     h_psi        :     25.48s CPU     26.11s WALL (    3046 calls)
     s_psi        :      0.42s CPU      0.45s WALL (    3046 calls)
     g_psi        :      0.03s CPU      0.06s WALL (    2046 calls)
     cdiaghg      :      0.96s CPU      0.99s WALL (    2796 calls)

     Called by h_psi:
     h_psi:pot    :     25.38s CPU     26.04s WALL (    3046 calls)
     h_psi:calbec :      0.75s CPU      0.69s WALL (    3046 calls)
     vloc_psi     :     24.07s CPU     24.86s WALL (    3046 calls)
     add_vuspsi   :      0.53s CPU      0.49s WALL (    3046 calls)

     General routines
     calbec       :      1.08s CPU      1.04s WALL (    4546 calls)
     fft          :      0.27s CPU      0.26s WALL (     137 calls)
     ffts         :      0.01s CPU      0.01s WALL (      14 calls)
     fftw         :     26.66s CPU     27.57s WALL (   57494 calls)
     interpolate  :      0.02s CPU      0.03s WALL (      14 calls)
     davcio       :      0.00s CPU      0.01s WALL (     125 calls)

     Parallel routines
     fft_scatter  :      5.62s CPU      6.22s WALL (   57645 calls)

     PWSCF        :    45.04s CPU        46.55s WALL


   This run was terminated on:  11: 0:27  30May2017            

=------------------------------------------------------------------------------=
   JOB DONE.
=------------------------------------------------------------------------------=
