
     Program PWSCF v.6.0 (svn rev. 13079) starts on 30May2017 at 10:57:55 

     This program is part of the open-source Quantum ESPRESSO suite
     for quantum simulation of materials; please cite
         "P. Giannozzi et al., J. Phys.:Condens. Matter 21 395502 (2009);
          URL http://www.quantum-espresso.org", 
     in publications or presentations arising from this work. More details at
     http://www.quantum-espresso.org/quote

     Parallel version (MPI), running on     4 processors
     R & G space division:  proc/nbgrp/npool/nimage =       4
     Waiting for input...
     Reading input from standard input
Warning: card &IONS ignored
Warning: card ION_DYNAMICS='BFGS', ignored
Warning: card / ignored
Warning: card &CELL ignored
Warning: card CELL_DYNAMICS='BFGS', ignored
Warning: card PRESS = 0.0, ignored
Warning: card CELL_FACTOR = 2.0, ignored
Warning: card / ignored

     Current dimensions of program PWSCF are:
     Max number of different atomic species (ntypx) = 10
     Max number of k-points (npk) =  40000
     Max angular momentum in pseudopotentials (lmaxx) =  3
               file Al.pbe-nl-kjpaw_psl.1.0.0.UPF: wavefunction(s)  3S 3P renormalized
               file Al.pbe-nl-kjpaw_psl.1.0.0.UPF: wavefunction(s)  3S 3P renormalized
               file Al.pbe-nl-kjpaw_psl.1.0.0.UPF: wavefunction(s)  3S 3P renormalized
               file Al.pbe-nl-kjpaw_psl.1.0.0.UPF: wavefunction(s)  3S 3P renormalized

     Subspace diagonalization in iterative solution of the eigenvalue problem:
     a serial algorithm will be used


     Parallelization info
     --------------------
     sticks:   dense  smooth     PW     G-vecs:    dense   smooth      PW
     Min         232     163     48                 5307     3123     524
     Max         234     165     49                 5308     3124     527
     Sum         933     657    193                21231    12493    2103



     bravais-lattice index     =            0
     lattice parameter (alat)  =       7.6300  a.u.
     unit-cell volume          =     444.1949 (a.u.)^3
     number of atoms/cell      =            4
     number of atomic types    =            4
     number of electrons       =        12.00
     number of Kohn-Sham states=           10
     kinetic-energy cutoff     =      35.0000  Ry
     charge density cutoff     =     200.0000  Ry
     convergence threshold     =      1.0E-06
     mixing beta               =       0.3000
     number of iterations used =           10  TF        mixing
     Exchange-correlation      =  SLA  PW   PBX  PBC ( 1  4  3  4 0 0)

     celldm(1)=   7.630000  celldm(2)=   0.000000  celldm(3)=   0.000000
     celldm(4)=   0.000000  celldm(5)=   0.000000  celldm(6)=   0.000000

     crystal axes: (cart. coord. in units of alat)
               a(1) = (   1.002000   0.000000   0.000000 )  
               a(2) = (   0.000000   0.998000   0.000000 )  
               a(3) = (   0.000000   0.000000   1.000004 )  

     reciprocal axes: (cart. coord. in units 2 pi/alat)
               b(1) = (  0.998004  0.000000  0.000000 )  
               b(2) = (  0.000000  1.002004  0.000000 )  
               b(3) = (  0.000000  0.000000  0.999996 )  


     PseudoPot. # 1 for Al read from file:
     /home/ben/espresso/pp/Al.pbe-nl-kjpaw_psl.1.0.0.UPF
     MD5 check sum: 339dbea23cf3ab9a065ad45c0f9085d7
     Pseudo is Projector augmented-wave + core cor, Zval =  3.0
     Generated using "atomic" code by A. Dal Corso  v.5.1
     Shape of augmentation charge: PSQ
     Using radial grid of 1135 points,  4 beta functions with: 
                l(1) =   0
                l(2) =   0
                l(3) =   1
                l(4) =   1
     Q(r) pseudized with 0 coefficients 


     PseudoPot. # 2 for Al read from file:
     /home/ben/espresso/pp/Al.pbe-nl-kjpaw_psl.1.0.0.UPF
     MD5 check sum: 339dbea23cf3ab9a065ad45c0f9085d7
     Pseudo is Projector augmented-wave + core cor, Zval =  3.0
     Generated using "atomic" code by A. Dal Corso  v.5.1
     Shape of augmentation charge: PSQ
     Using radial grid of 1135 points,  4 beta functions with: 
                l(1) =   0
                l(2) =   0
                l(3) =   1
                l(4) =   1
     Q(r) pseudized with 0 coefficients 


     PseudoPot. # 3 for Al read from file:
     /home/ben/espresso/pp/Al.pbe-nl-kjpaw_psl.1.0.0.UPF
     MD5 check sum: 339dbea23cf3ab9a065ad45c0f9085d7
     Pseudo is Projector augmented-wave + core cor, Zval =  3.0
     Generated using "atomic" code by A. Dal Corso  v.5.1
     Shape of augmentation charge: PSQ
     Using radial grid of 1135 points,  4 beta functions with: 
                l(1) =   0
                l(2) =   0
                l(3) =   1
                l(4) =   1
     Q(r) pseudized with 0 coefficients 


     PseudoPot. # 4 for Al read from file:
     /home/ben/espresso/pp/Al.pbe-nl-kjpaw_psl.1.0.0.UPF
     MD5 check sum: 339dbea23cf3ab9a065ad45c0f9085d7
     Pseudo is Projector augmented-wave + core cor, Zval =  3.0
     Generated using "atomic" code by A. Dal Corso  v.5.1
     Shape of augmentation charge: PSQ
     Using radial grid of 1135 points,  4 beta functions with: 
                l(1) =   0
                l(2) =   0
                l(3) =   1
                l(4) =   1
     Q(r) pseudized with 0 coefficients 


     atomic species   valence    mass     pseudopotential
        Al1            3.00    26.98200     Al( 1.00)
        Al2            3.00    26.98200     Al( 1.00)
        Al3            3.00    26.98200     Al( 1.00)
        Al4            3.00    26.98200     Al( 1.00)

      8 Sym. Ops., with inversion, found



   Cartesian axes

     site n.     atom                  positions (alat units)
         1           Al1 tau(   1) = (   0.0000000   0.0000000   0.0000000  )
         2           Al2 tau(   2) = (   0.5010000   0.4990000   0.0000000  )
         3           Al3 tau(   3) = (   0.5010000   0.0000000   0.5000020  )
         4           Al4 tau(   4) = (   0.0000000   0.4990000   0.5000020  )

     number of k points=   125  Marzari-Vanderbilt smearing, width (Ry)=  0.0200

     Number of k-points >= 100: set verbosity='high' to print them.

     Dense  grid:    21231 G-vectors     FFT dimensions: (  36,  36,  36)

     Smooth grid:    12493 G-vectors     FFT dimensions: (  30,  30,  30)

     Estimated max dynamical RAM per process >      11.65Mb

     Estimated total allocated dynamical RAM >      46.62Mb

     Initial potential from superposition of free atoms

     starting charge   11.99084, renormalised to   12.00000
     Starting wfc are   16 randomized atomic wfcs
     Checking if some PAW data can be deallocated... 

     total cpu time spent up to now is       10.5 secs

     per-process dynamical memory:    21.2 Mb

     Self-consistent Calculation

     iteration #  1     ecut=    35.00 Ry     beta=0.30
     Davidson diagonalization with overlap
     ethr =  1.00E-02,  avg # of iterations =  3.3

     Threshold (ethr) on eigenvalues was too large:
     Diagonalizing with lowered threshold

     Davidson diagonalization with overlap
     ethr =  1.95E-04,  avg # of iterations =  3.9

     total cpu time spent up to now is       18.2 secs

     total energy              =    -158.01527597 Ry
     Harris-Foulkes estimate   =    -158.01731507 Ry
     estimated scf accuracy    <       0.02265946 Ry

     iteration #  2     ecut=    35.00 Ry     beta=0.30
     Davidson diagonalization with overlap
     ethr =  1.89E-04,  avg # of iterations =  1.0

     total cpu time spent up to now is       21.2 secs

     total energy              =    -158.01103809 Ry
     Harris-Foulkes estimate   =    -158.01538667 Ry
     estimated scf accuracy    <       0.01411514 Ry

     iteration #  3     ecut=    35.00 Ry     beta=0.30
     Davidson diagonalization with overlap
     ethr =  1.18E-04,  avg # of iterations =  1.0

     total cpu time spent up to now is       29.8 secs

     total energy              =    -158.01130383 Ry
     Harris-Foulkes estimate   =    -158.01129130 Ry
     estimated scf accuracy    <       0.00003593 Ry

     iteration #  4     ecut=    35.00 Ry     beta=0.30
     Davidson diagonalization with overlap
     ethr =  2.99E-07,  avg # of iterations =  4.0

     total cpu time spent up to now is       39.5 secs

     total energy              =    -158.01137980 Ry
     Harris-Foulkes estimate   =    -158.01136304 Ry
     estimated scf accuracy    <       0.00001731 Ry

     iteration #  5     ecut=    35.00 Ry     beta=0.30
     Davidson diagonalization with overlap
     ethr =  1.44E-07,  avg # of iterations =  1.1

     total cpu time spent up to now is       42.5 secs

     total energy              =    -158.01137791 Ry
     Harris-Foulkes estimate   =    -158.01138070 Ry
     estimated scf accuracy    <       0.00000621 Ry

     iteration #  6     ecut=    35.00 Ry     beta=0.30
     Davidson diagonalization with overlap
     ethr =  5.18E-08,  avg # of iterations =  2.0

     total cpu time spent up to now is       45.6 secs

     End of self-consistent calculation

     Number of k-points >= 100: set verbosity='high' to print the bands.

     the Fermi energy is     7.9924 ev

!    total energy              =    -158.01137859 Ry
     Harris-Foulkes estimate   =    -158.01137876 Ry
     estimated scf accuracy    <       0.00000006 Ry

     total all-electron energy =     -1942.582506 Ry

     The total energy is the sum of the following terms:

     one-electron contribution =      12.67565786 Ry
     hartree contribution      =       0.02434618 Ry
     xc contribution           =     -10.36851866 Ry
     ewald contribution        =     -21.63237279 Ry
     one-center paw contrib.   =    -138.70994094 Ry
     smearing contrib. (-TS)   =      -0.00055024 Ry

     convergence has been achieved in   6 iterations

     Forces acting on atoms (Ry/au):

     atom    1 type  1   force =     0.00000000    0.00000000    0.00000000
     atom    2 type  2   force =     0.00000000    0.00000000    0.00000000
     atom    3 type  3   force =     0.00000000    0.00000000    0.00000000
     atom    4 type  4   force =     0.00000000    0.00000000    0.00000000

     Total force =     0.000000     Total SCF correction =     0.000000


     entering subroutine stress ...

          total   stress  (Ry/bohr**3)                   (kbar)     P=   -0.42
  -0.00001366   0.00000000   0.00000000         -2.01      0.00      0.00
   0.00000000   0.00000797   0.00000000          0.00      1.17      0.00
   0.00000000   0.00000000  -0.00000282          0.00      0.00     -0.42


     Writing output data file template.save

     init_run     :      6.78s CPU      7.11s WALL (       1 calls)
     electrons    :     33.54s CPU     35.17s WALL (       1 calls)
     forces       :      0.78s CPU      0.81s WALL (       1 calls)
     stress       :      4.01s CPU      4.17s WALL (       1 calls)

     Called by init_run:
     wfcinit      :      3.16s CPU      3.25s WALL (       1 calls)
     potinit      :      0.97s CPU      1.06s WALL (       1 calls)

     Called by electrons:
     c_bands      :     27.79s CPU     29.28s WALL (       7 calls)
     sum_band     :      4.88s CPU      4.98s WALL (       7 calls)
     v_of_rho     :      0.14s CPU      0.17s WALL (       7 calls)
     newd         :      0.20s CPU      0.24s WALL (       7 calls)
     PAW_pot      :      0.81s CPU      0.81s WALL (       7 calls)
     mix_rho      :      0.02s CPU      0.01s WALL (       7 calls)

     Called by c_bands:
     init_us_2    :      0.68s CPU      0.72s WALL (    2125 calls)
     cegterg      :     27.04s CPU     28.46s WALL (     875 calls)

     Called by sum_band:
     sum_band:bec :      0.01s CPU      0.01s WALL (     875 calls)
     addusdens    :      0.20s CPU      0.20s WALL (       7 calls)

     Called by *egterg:
     h_psi        :     26.26s CPU     27.76s WALL (    3045 calls)
     s_psi        :      0.46s CPU      0.47s WALL (    3045 calls)
     g_psi        :      0.07s CPU      0.06s WALL (    2045 calls)
     cdiaghg      :      0.97s CPU      1.04s WALL (    2795 calls)

     Called by h_psi:
     h_psi:pot    :     26.18s CPU     27.70s WALL (    3045 calls)
     h_psi:calbec :      0.73s CPU      0.78s WALL (    3045 calls)
     vloc_psi     :     24.94s CPU     26.36s WALL (    3045 calls)
     add_vuspsi   :      0.50s CPU      0.54s WALL (    3045 calls)

     General routines
     calbec       :      1.42s CPU      1.46s WALL (    4545 calls)
     fft          :      0.25s CPU      0.31s WALL (     137 calls)
     ffts         :      0.02s CPU      0.01s WALL (      14 calls)
     fftw         :     27.87s CPU     29.23s WALL (   57518 calls)
     interpolate  :      0.04s CPU      0.03s WALL (      14 calls)
     davcio       :      0.01s CPU      0.01s WALL (     125 calls)

     Parallel routines
     fft_scatter  :      7.08s CPU      7.41s WALL (   57669 calls)

     PWSCF        :    48.96s CPU        51.59s WALL


   This run was terminated on:  10:58:47  30May2017            

=------------------------------------------------------------------------------=
   JOB DONE.
=------------------------------------------------------------------------------=
