
     Program PWSCF v.6.0 (svn rev. 13079) starts on 30May2017 at 11:19:10 

     This program is part of the open-source Quantum ESPRESSO suite
     for quantum simulation of materials; please cite
         "P. Giannozzi et al., J. Phys.:Condens. Matter 21 395502 (2009);
          URL http://www.quantum-espresso.org", 
     in publications or presentations arising from this work. More details at
     http://www.quantum-espresso.org/quote

     Parallel version (MPI), running on     4 processors
     R & G space division:  proc/nbgrp/npool/nimage =       4
     Waiting for input...
     Reading input from standard input
Warning: card &IONS ignored
Warning: card ION_DYNAMICS='BFGS', ignored
Warning: card / ignored
Warning: card &CELL ignored
Warning: card CELL_DYNAMICS='BFGS', ignored
Warning: card PRESS = 0.0, ignored
Warning: card CELL_FACTOR = 2.0, ignored
Warning: card / ignored

     Current dimensions of program PWSCF are:
     Max number of different atomic species (ntypx) = 10
     Max number of k-points (npk) =  40000
     Max angular momentum in pseudopotentials (lmaxx) =  3
               file Al.pbe-nl-kjpaw_psl.1.0.0.UPF: wavefunction(s)  3S 3P renormalized
               file Al.pbe-nl-kjpaw_psl.1.0.0.UPF: wavefunction(s)  3S 3P renormalized
               file Al.pbe-nl-kjpaw_psl.1.0.0.UPF: wavefunction(s)  3S 3P renormalized
               file Al.pbe-nl-kjpaw_psl.1.0.0.UPF: wavefunction(s)  3S 3P renormalized

     Subspace diagonalization in iterative solution of the eigenvalue problem:
     a serial algorithm will be used


     Parallelization info
     --------------------
     sticks:   dense  smooth     PW     G-vecs:    dense   smooth      PW
     Min         230     161     48                 5304     3113     526
     Max         232     162     50                 5305     3118     528
     Sum         923     647    197                21217    12463    2107



     bravais-lattice index     =            0
     lattice parameter (alat)  =       7.6300  a.u.
     unit-cell volume          =     444.1949 (a.u.)^3
     number of atoms/cell      =            4
     number of atomic types    =            4
     number of electrons       =        12.00
     number of Kohn-Sham states=           10
     kinetic-energy cutoff     =      35.0000  Ry
     charge density cutoff     =     200.0000  Ry
     convergence threshold     =      1.0E-06
     mixing beta               =       0.3000
     number of iterations used =           10  TF        mixing
     Exchange-correlation      =  SLA  PW   PBX  PBC ( 1  4  3  4 0 0)

     celldm(1)=   7.630000  celldm(2)=   0.000000  celldm(3)=   0.000000
     celldm(4)=   0.000000  celldm(5)=   0.000000  celldm(6)=   0.000000

     crystal axes: (cart. coord. in units of alat)
               a(1) = (   1.000000   0.018000   0.000000 )  
               a(2) = (   0.018000   1.000000   0.000000 )  
               a(3) = (   0.000000   0.000000   1.000324 )  

     reciprocal axes: (cart. coord. in units 2 pi/alat)
               b(1) = (  1.000324 -0.018006  0.000000 )  
               b(2) = ( -0.018006  1.000324  0.000000 )  
               b(3) = (  0.000000  0.000000  0.999676 )  


     PseudoPot. # 1 for Al read from file:
     /home/ben/espresso/pp/Al.pbe-nl-kjpaw_psl.1.0.0.UPF
     MD5 check sum: 339dbea23cf3ab9a065ad45c0f9085d7
     Pseudo is Projector augmented-wave + core cor, Zval =  3.0
     Generated using "atomic" code by A. Dal Corso  v.5.1
     Shape of augmentation charge: PSQ
     Using radial grid of 1135 points,  4 beta functions with: 
                l(1) =   0
                l(2) =   0
                l(3) =   1
                l(4) =   1
     Q(r) pseudized with 0 coefficients 


     PseudoPot. # 2 for Al read from file:
     /home/ben/espresso/pp/Al.pbe-nl-kjpaw_psl.1.0.0.UPF
     MD5 check sum: 339dbea23cf3ab9a065ad45c0f9085d7
     Pseudo is Projector augmented-wave + core cor, Zval =  3.0
     Generated using "atomic" code by A. Dal Corso  v.5.1
     Shape of augmentation charge: PSQ
     Using radial grid of 1135 points,  4 beta functions with: 
                l(1) =   0
                l(2) =   0
                l(3) =   1
                l(4) =   1
     Q(r) pseudized with 0 coefficients 


     PseudoPot. # 3 for Al read from file:
     /home/ben/espresso/pp/Al.pbe-nl-kjpaw_psl.1.0.0.UPF
     MD5 check sum: 339dbea23cf3ab9a065ad45c0f9085d7
     Pseudo is Projector augmented-wave + core cor, Zval =  3.0
     Generated using "atomic" code by A. Dal Corso  v.5.1
     Shape of augmentation charge: PSQ
     Using radial grid of 1135 points,  4 beta functions with: 
                l(1) =   0
                l(2) =   0
                l(3) =   1
                l(4) =   1
     Q(r) pseudized with 0 coefficients 


     PseudoPot. # 4 for Al read from file:
     /home/ben/espresso/pp/Al.pbe-nl-kjpaw_psl.1.0.0.UPF
     MD5 check sum: 339dbea23cf3ab9a065ad45c0f9085d7
     Pseudo is Projector augmented-wave + core cor, Zval =  3.0
     Generated using "atomic" code by A. Dal Corso  v.5.1
     Shape of augmentation charge: PSQ
     Using radial grid of 1135 points,  4 beta functions with: 
                l(1) =   0
                l(2) =   0
                l(3) =   1
                l(4) =   1
     Q(r) pseudized with 0 coefficients 


     atomic species   valence    mass     pseudopotential
        Al1            3.00    26.98200     Al( 1.00)
        Al2            3.00    26.98200     Al( 1.00)
        Al3            3.00    26.98200     Al( 1.00)
        Al4            3.00    26.98200     Al( 1.00)

      4 Sym. Ops., with inversion, found



   Cartesian axes

     site n.     atom                  positions (alat units)
         1           Al1 tau(   1) = (   0.0000000   0.0000000   0.0000000  )
         2           Al2 tau(   2) = (   0.5090000   0.5090000   0.0000000  )
         3           Al3 tau(   3) = (   0.5000000   0.0090000   0.5001621  )
         4           Al4 tau(   4) = (   0.0090000   0.5000000   0.5001621  )

     number of k points=   250  Marzari-Vanderbilt smearing, width (Ry)=  0.0200

     Number of k-points >= 100: set verbosity='high' to print them.

     Dense  grid:    21217 G-vectors     FFT dimensions: (  36,  36,  36)

     Smooth grid:    12463 G-vectors     FFT dimensions: (  30,  30,  30)

     Estimated max dynamical RAM per process >      19.05Mb

     Estimated total allocated dynamical RAM >      76.21Mb

     Initial potential from superposition of free atoms

     starting charge   11.99084, renormalised to   12.00000
     Starting wfc are   16 randomized atomic wfcs
     Checking if some PAW data can be deallocated... 

     total cpu time spent up to now is       13.5 secs

     per-process dynamical memory:    29.4 Mb

     Self-consistent Calculation

     iteration #  1     ecut=    35.00 Ry     beta=0.30
     Davidson diagonalization with overlap
     ethr =  1.00E-02,  avg # of iterations =  3.4

     Threshold (ethr) on eigenvalues was too large:
     Diagonalizing with lowered threshold

     Davidson diagonalization with overlap
     ethr =  1.96E-04,  avg # of iterations =  3.7

     total cpu time spent up to now is       39.5 secs

     total energy              =    -158.01470911 Ry
     Harris-Foulkes estimate   =    -158.01674989 Ry
     estimated scf accuracy    <       0.02273406 Ry

     iteration #  2     ecut=    35.00 Ry     beta=0.30
     Davidson diagonalization with overlap
     ethr =  1.89E-04,  avg # of iterations =  1.0

     total cpu time spent up to now is       44.9 secs

     total energy              =    -158.01048644 Ry
     Harris-Foulkes estimate   =    -158.01482277 Ry
     estimated scf accuracy    <       0.01415554 Ry

     iteration #  3     ecut=    35.00 Ry     beta=0.30
     Davidson diagonalization with overlap
     ethr =  1.18E-04,  avg # of iterations =  1.1

     total cpu time spent up to now is       50.2 secs

     total energy              =    -158.01075044 Ry
     Harris-Foulkes estimate   =    -158.01073929 Ry
     estimated scf accuracy    <       0.00003593 Ry

     iteration #  4     ecut=    35.00 Ry     beta=0.30
     Davidson diagonalization with overlap
     c_bands:  1 eigenvalues not converged
     c_bands:  1 eigenvalues not converged
     ethr =  2.99E-07,  avg # of iterations =  4.3

     total cpu time spent up to now is       70.2 secs

     total energy              =    -158.01082493 Ry
     Harris-Foulkes estimate   =    -158.01080898 Ry
     estimated scf accuracy    <       0.00001764 Ry

     iteration #  5     ecut=    35.00 Ry     beta=0.30
     Davidson diagonalization with overlap
     ethr =  1.47E-07,  avg # of iterations =  1.0

     total cpu time spent up to now is       75.8 secs

     total energy              =    -158.01082306 Ry
     Harris-Foulkes estimate   =    -158.01082588 Ry
     estimated scf accuracy    <       0.00000632 Ry

     iteration #  6     ecut=    35.00 Ry     beta=0.30
     Davidson diagonalization with overlap
     ethr =  5.26E-08,  avg # of iterations =  2.0

     total cpu time spent up to now is       92.2 secs

     End of self-consistent calculation

     Number of k-points >= 100: set verbosity='high' to print the bands.

     the Fermi energy is     7.9595 ev

!    total energy              =    -158.01082374 Ry
     Harris-Foulkes estimate   =    -158.01082394 Ry
     estimated scf accuracy    <       0.00000007 Ry

     total all-electron energy =     -1942.581951 Ry

     The total energy is the sum of the following terms:

     one-electron contribution =      12.67348029 Ry
     hartree contribution      =       0.02542255 Ry
     xc contribution           =     -10.36953410 Ry
     ewald contribution        =     -21.62947147 Ry
     one-center paw contrib.   =    -138.71067476 Ry
     smearing contrib. (-TS)   =      -0.00004623 Ry

     convergence has been achieved in   6 iterations

     Forces acting on atoms (Ry/au):

     atom    1 type  1   force =     0.00000000    0.00000000    0.00000000
     atom    2 type  2   force =     0.00000000    0.00000000    0.00000000
     atom    3 type  3   force =     0.00000000    0.00000000    0.00000000
     atom    4 type  4   force =     0.00000000    0.00000000    0.00000000

     Total force =     0.000000     Total SCF correction =     0.000000


     entering subroutine stress ...

          total   stress  (Ry/bohr**3)                   (kbar)     P=    0.63
   0.00001923  -0.00007619   0.00000000          2.83    -11.21      0.00
  -0.00007619   0.00001923   0.00000000        -11.21      2.83      0.00
   0.00000000   0.00000000  -0.00002562          0.00      0.00     -3.77


     Writing output data file template.save

     init_run     :      9.71s CPU     10.18s WALL (       1 calls)
     electrons    :     74.46s CPU     78.72s WALL (       1 calls)
     forces       :      0.93s CPU      0.94s WALL (       1 calls)
     stress       :      2.54s CPU      2.57s WALL (       1 calls)

     Called by init_run:
     wfcinit      :      6.02s CPU      6.20s WALL (       1 calls)
     potinit      :      0.96s CPU      1.10s WALL (       1 calls)

     Called by electrons:
     c_bands      :     66.67s CPU     70.75s WALL (       7 calls)
     sum_band     :      7.17s CPU      7.33s WALL (       7 calls)
     v_of_rho     :      0.10s CPU      0.11s WALL (       7 calls)
     newd         :      0.18s CPU      0.19s WALL (       7 calls)
     PAW_pot      :      0.65s CPU      0.67s WALL (       7 calls)
     mix_rho      :      0.01s CPU      0.01s WALL (       7 calls)

     Called by c_bands:
     init_us_2    :      1.17s CPU      1.27s WALL (    4250 calls)
     cegterg      :     64.90s CPU     68.85s WALL (    1750 calls)

     Called by sum_band:
     sum_band:bec :      0.03s CPU      0.02s WALL (    1750 calls)
     addusdens    :      0.16s CPU      0.17s WALL (       7 calls)

     Called by *egterg:
     h_psi        :     62.20s CPU     65.47s WALL (    6128 calls)
     s_psi        :      1.03s CPU      1.18s WALL (    6128 calls)
     g_psi        :      0.16s CPU      0.15s WALL (    4128 calls)
     cdiaghg      :      2.47s CPU      2.63s WALL (    5628 calls)

     Called by h_psi:
     h_psi:pot    :     62.05s CPU     65.30s WALL (    6128 calls)
     h_psi:calbec :      1.78s CPU      1.89s WALL (    6128 calls)
     vloc_psi     :     58.88s CPU     62.05s WALL (    6128 calls)
     add_vuspsi   :      1.34s CPU      1.31s WALL (    6128 calls)

     General routines
     calbec       :      2.60s CPU      2.65s WALL (    9128 calls)
     fft          :      0.30s CPU      0.29s WALL (     137 calls)
     ffts         :      0.02s CPU      0.01s WALL (      14 calls)
     fftw         :     62.18s CPU     65.44s WALL (  115058 calls)
     interpolate  :      0.03s CPU      0.02s WALL (      14 calls)
     davcio       :      0.00s CPU      0.01s WALL (     250 calls)

     Parallel routines
     fft_scatter  :     15.63s CPU     16.25s WALL (  115209 calls)

     PWSCF        :  1m31.15s CPU     1m36.34s WALL


   This run was terminated on:  11:20:46  30May2017            

=------------------------------------------------------------------------------=
   JOB DONE.
=------------------------------------------------------------------------------=
