
     Program PWSCF v.6.0 (svn rev. 13079) starts on 30May2017 at 11:20:46 

     This program is part of the open-source Quantum ESPRESSO suite
     for quantum simulation of materials; please cite
         "P. Giannozzi et al., J. Phys.:Condens. Matter 21 395502 (2009);
          URL http://www.quantum-espresso.org", 
     in publications or presentations arising from this work. More details at
     http://www.quantum-espresso.org/quote

     Parallel version (MPI), running on     4 processors
     R & G space division:  proc/nbgrp/npool/nimage =       4
     Waiting for input...
     Reading input from standard input
Warning: card &IONS ignored
Warning: card ION_DYNAMICS='BFGS', ignored
Warning: card / ignored
Warning: card &CELL ignored
Warning: card CELL_DYNAMICS='BFGS', ignored
Warning: card PRESS = 0.0, ignored
Warning: card CELL_FACTOR = 2.0, ignored
Warning: card / ignored

     Current dimensions of program PWSCF are:
     Max number of different atomic species (ntypx) = 10
     Max number of k-points (npk) =  40000
     Max angular momentum in pseudopotentials (lmaxx) =  3
               file Al.pbe-nl-kjpaw_psl.1.0.0.UPF: wavefunction(s)  3S 3P renormalized
               file Al.pbe-nl-kjpaw_psl.1.0.0.UPF: wavefunction(s)  3S 3P renormalized
               file Al.pbe-nl-kjpaw_psl.1.0.0.UPF: wavefunction(s)  3S 3P renormalized
               file Al.pbe-nl-kjpaw_psl.1.0.0.UPF: wavefunction(s)  3S 3P renormalized

     Subspace diagonalization in iterative solution of the eigenvalue problem:
     a serial algorithm will be used


     Parallelization info
     --------------------
     sticks:   dense  smooth     PW     G-vecs:    dense   smooth      PW
     Min         230     161     49                 5312     3113     524
     Max         232     162     50                 5313     3114     525
     Sum         923     647    197                21249    12455    2099



     bravais-lattice index     =            0
     lattice parameter (alat)  =       7.6300  a.u.
     unit-cell volume          =     444.1949 (a.u.)^3
     number of atoms/cell      =            4
     number of atomic types    =            4
     number of electrons       =        12.00
     number of Kohn-Sham states=           10
     kinetic-energy cutoff     =      35.0000  Ry
     charge density cutoff     =     200.0000  Ry
     convergence threshold     =      1.0E-06
     mixing beta               =       0.3000
     number of iterations used =           10  TF        mixing
     Exchange-correlation      =  SLA  PW   PBX  PBC ( 1  4  3  4 0 0)

     celldm(1)=   7.630000  celldm(2)=   0.000000  celldm(3)=   0.000000
     celldm(4)=   0.000000  celldm(5)=   0.000000  celldm(6)=   0.000000

     crystal axes: (cart. coord. in units of alat)
               a(1) = (   1.000000   0.020000   0.000000 )  
               a(2) = (   0.020000   1.000000   0.000000 )  
               a(3) = (   0.000000   0.000000   1.000400 )  

     reciprocal axes: (cart. coord. in units 2 pi/alat)
               b(1) = (  1.000400 -0.020008  0.000000 )  
               b(2) = ( -0.020008  1.000400  0.000000 )  
               b(3) = (  0.000000  0.000000  0.999600 )  


     PseudoPot. # 1 for Al read from file:
     /home/ben/espresso/pp/Al.pbe-nl-kjpaw_psl.1.0.0.UPF
     MD5 check sum: 339dbea23cf3ab9a065ad45c0f9085d7
     Pseudo is Projector augmented-wave + core cor, Zval =  3.0
     Generated using "atomic" code by A. Dal Corso  v.5.1
     Shape of augmentation charge: PSQ
     Using radial grid of 1135 points,  4 beta functions with: 
                l(1) =   0
                l(2) =   0
                l(3) =   1
                l(4) =   1
     Q(r) pseudized with 0 coefficients 


     PseudoPot. # 2 for Al read from file:
     /home/ben/espresso/pp/Al.pbe-nl-kjpaw_psl.1.0.0.UPF
     MD5 check sum: 339dbea23cf3ab9a065ad45c0f9085d7
     Pseudo is Projector augmented-wave + core cor, Zval =  3.0
     Generated using "atomic" code by A. Dal Corso  v.5.1
     Shape of augmentation charge: PSQ
     Using radial grid of 1135 points,  4 beta functions with: 
                l(1) =   0
                l(2) =   0
                l(3) =   1
                l(4) =   1
     Q(r) pseudized with 0 coefficients 


     PseudoPot. # 3 for Al read from file:
     /home/ben/espresso/pp/Al.pbe-nl-kjpaw_psl.1.0.0.UPF
     MD5 check sum: 339dbea23cf3ab9a065ad45c0f9085d7
     Pseudo is Projector augmented-wave + core cor, Zval =  3.0
     Generated using "atomic" code by A. Dal Corso  v.5.1
     Shape of augmentation charge: PSQ
     Using radial grid of 1135 points,  4 beta functions with: 
                l(1) =   0
                l(2) =   0
                l(3) =   1
                l(4) =   1
     Q(r) pseudized with 0 coefficients 


     PseudoPot. # 4 for Al read from file:
     /home/ben/espresso/pp/Al.pbe-nl-kjpaw_psl.1.0.0.UPF
     MD5 check sum: 339dbea23cf3ab9a065ad45c0f9085d7
     Pseudo is Projector augmented-wave + core cor, Zval =  3.0
     Generated using "atomic" code by A. Dal Corso  v.5.1
     Shape of augmentation charge: PSQ
     Using radial grid of 1135 points,  4 beta functions with: 
                l(1) =   0
                l(2) =   0
                l(3) =   1
                l(4) =   1
     Q(r) pseudized with 0 coefficients 


     atomic species   valence    mass     pseudopotential
        Al1            3.00    26.98200     Al( 1.00)
        Al2            3.00    26.98200     Al( 1.00)
        Al3            3.00    26.98200     Al( 1.00)
        Al4            3.00    26.98200     Al( 1.00)

      4 Sym. Ops., with inversion, found



   Cartesian axes

     site n.     atom                  positions (alat units)
         1           Al1 tau(   1) = (   0.0000000   0.0000000   0.0000000  )
         2           Al2 tau(   2) = (   0.5100000   0.5100000   0.0000000  )
         3           Al3 tau(   3) = (   0.5000000   0.0100000   0.5002001  )
         4           Al4 tau(   4) = (   0.0100000   0.5000000   0.5002001  )

     number of k points=   250  Marzari-Vanderbilt smearing, width (Ry)=  0.0200

     Number of k-points >= 100: set verbosity='high' to print them.

     Dense  grid:    21249 G-vectors     FFT dimensions: (  36,  36,  36)

     Smooth grid:    12455 G-vectors     FFT dimensions: (  30,  30,  30)

     Estimated max dynamical RAM per process >      19.06Mb

     Estimated total allocated dynamical RAM >      76.23Mb

     Initial potential from superposition of free atoms

     starting charge   11.99084, renormalised to   12.00000
     Starting wfc are   16 randomized atomic wfcs
     Checking if some PAW data can be deallocated... 

     total cpu time spent up to now is        6.0 secs

     per-process dynamical memory:    29.5 Mb

     Self-consistent Calculation

     iteration #  1     ecut=    35.00 Ry     beta=0.30
     Davidson diagonalization with overlap
     ethr =  1.00E-02,  avg # of iterations =  3.3

     Threshold (ethr) on eigenvalues was too large:
     Diagonalizing with lowered threshold

     Davidson diagonalization with overlap
     ethr =  1.96E-04,  avg # of iterations =  3.7

     total cpu time spent up to now is       32.2 secs

     total energy              =    -158.01456516 Ry
     Harris-Foulkes estimate   =    -158.01660513 Ry
     estimated scf accuracy    <       0.02275053 Ry

     iteration #  2     ecut=    35.00 Ry     beta=0.30
     Davidson diagonalization with overlap
     ethr =  1.90E-04,  avg # of iterations =  1.0

     total cpu time spent up to now is       48.2 secs

     total energy              =    -158.01034182 Ry
     Harris-Foulkes estimate   =    -158.01467525 Ry
     estimated scf accuracy    <       0.01416548 Ry

     iteration #  3     ecut=    35.00 Ry     beta=0.30
     Davidson diagonalization with overlap
     ethr =  1.18E-04,  avg # of iterations =  1.1

     total cpu time spent up to now is       53.8 secs

     total energy              =    -158.01060462 Ry
     Harris-Foulkes estimate   =    -158.01059334 Ry
     estimated scf accuracy    <       0.00003596 Ry

     iteration #  4     ecut=    35.00 Ry     beta=0.30
     Davidson diagonalization with overlap
     c_bands:  1 eigenvalues not converged
     c_bands:  1 eigenvalues not converged
     c_bands:  1 eigenvalues not converged
     c_bands:  1 eigenvalues not converged
     c_bands:  1 eigenvalues not converged
     ethr =  3.00E-07,  avg # of iterations =  4.6

     total cpu time spent up to now is       73.6 secs

     total energy              =    -158.01067882 Ry
     Harris-Foulkes estimate   =    -158.01066301 Ry
     estimated scf accuracy    <       0.00001767 Ry

     iteration #  5     ecut=    35.00 Ry     beta=0.30
     Davidson diagonalization with overlap
     ethr =  1.47E-07,  avg # of iterations =  1.0

     total cpu time spent up to now is       79.5 secs

     total energy              =    -158.01067696 Ry
     Harris-Foulkes estimate   =    -158.01067976 Ry
     estimated scf accuracy    <       0.00000627 Ry

     iteration #  6     ecut=    35.00 Ry     beta=0.30
     Davidson diagonalization with overlap
     ethr =  5.23E-08,  avg # of iterations =  2.0

     total cpu time spent up to now is       85.9 secs

     End of self-consistent calculation

     Number of k-points >= 100: set verbosity='high' to print the bands.

     the Fermi energy is     7.9536 ev

!    total energy              =    -158.01067765 Ry
     Harris-Foulkes estimate   =    -158.01067785 Ry
     estimated scf accuracy    <       0.00000008 Ry

     total all-electron energy =     -1942.581805 Ry

     The total energy is the sum of the following terms:

     one-electron contribution =      12.67301615 Ry
     hartree contribution      =       0.02566576 Ry
     xc contribution           =     -10.36976272 Ry
     ewald contribution        =     -21.62878828 Ry
     one-center paw contrib.   =    -138.71084040 Ry
     smearing contrib. (-TS)   =       0.00003185 Ry

     convergence has been achieved in   6 iterations

     Forces acting on atoms (Ry/au):

     atom    1 type  1   force =     0.00000000    0.00000000    0.00000000
     atom    2 type  2   force =     0.00000000    0.00000000    0.00000000
     atom    3 type  3   force =     0.00000000    0.00000000    0.00000000
     atom    4 type  4   force =     0.00000000    0.00000000    0.00000000

     Total force =     0.000000     Total SCF correction =     0.000000


     entering subroutine stress ...

          total   stress  (Ry/bohr**3)                   (kbar)     P=    0.88
   0.00002353  -0.00008657   0.00000000          3.46    -12.73      0.00
  -0.00008657   0.00002353   0.00000000        -12.73      3.46      0.00
   0.00000000   0.00000000  -0.00002910          0.00      0.00     -4.28


     Writing output data file template.save

     init_run     :      4.70s CPU      4.78s WALL (       1 calls)
     electrons    :     75.40s CPU     79.93s WALL (       1 calls)
     forces       :      3.02s CPU      3.28s WALL (       1 calls)
     stress       :      8.14s CPU      8.96s WALL (       1 calls)

     Called by init_run:
     wfcinit      :      3.47s CPU      3.52s WALL (       1 calls)
     potinit      :      0.33s CPU      0.34s WALL (       1 calls)

     Called by electrons:
     c_bands      :     64.48s CPU     68.56s WALL (       7 calls)
     sum_band     :     10.10s CPU     10.50s WALL (       7 calls)
     v_of_rho     :      0.11s CPU      0.11s WALL (       7 calls)
     newd         :      0.18s CPU      0.19s WALL (       7 calls)
     PAW_pot      :      0.60s CPU      0.66s WALL (       7 calls)
     mix_rho      :      0.01s CPU      0.01s WALL (       7 calls)

     Called by c_bands:
     init_us_2    :      1.68s CPU      1.61s WALL (    4250 calls)
     cegterg      :     62.56s CPU     66.66s WALL (    1750 calls)

     Called by sum_band:
     sum_band:bec :      0.03s CPU      0.03s WALL (    1750 calls)
     addusdens    :      0.22s CPU      0.23s WALL (       7 calls)

     Called by *egterg:
     h_psi        :     57.98s CPU     61.39s WALL (    6197 calls)
     s_psi        :      0.91s CPU      1.05s WALL (    6197 calls)
     g_psi        :      0.14s CPU      0.14s WALL (    4197 calls)
     cdiaghg      :      2.20s CPU      2.33s WALL (    5697 calls)

     Called by h_psi:
     h_psi:pot    :     57.86s CPU     61.24s WALL (    6197 calls)
     h_psi:calbec :      1.64s CPU      1.73s WALL (    6197 calls)
     vloc_psi     :     55.08s CPU     58.34s WALL (    6197 calls)
     add_vuspsi   :      1.12s CPU      1.15s WALL (    6197 calls)

     General routines
     calbec       :      3.63s CPU      3.93s WALL (    9197 calls)
     fft          :      0.18s CPU      0.19s WALL (     137 calls)
     ffts         :      0.00s CPU      0.01s WALL (      14 calls)
     fftw         :     60.96s CPU     64.45s WALL (  115212 calls)
     interpolate  :      0.02s CPU      0.02s WALL (      14 calls)
     davcio       :      0.00s CPU      0.01s WALL (     250 calls)

     Parallel routines
     fft_scatter  :     15.48s CPU     16.17s WALL (  115363 calls)

     PWSCF        :  1m33.81s CPU     1m40.04s WALL


   This run was terminated on:  11:22:26  30May2017            

=------------------------------------------------------------------------------=
   JOB DONE.
=------------------------------------------------------------------------------=
