
     Program PWSCF v.6.0 (svn rev. 13079) starts on 30May2017 at 11:17:39 

     This program is part of the open-source Quantum ESPRESSO suite
     for quantum simulation of materials; please cite
         "P. Giannozzi et al., J. Phys.:Condens. Matter 21 395502 (2009);
          URL http://www.quantum-espresso.org", 
     in publications or presentations arising from this work. More details at
     http://www.quantum-espresso.org/quote

     Parallel version (MPI), running on     4 processors
     R & G space division:  proc/nbgrp/npool/nimage =       4
     Waiting for input...
     Reading input from standard input
Warning: card &IONS ignored
Warning: card ION_DYNAMICS='BFGS', ignored
Warning: card / ignored
Warning: card &CELL ignored
Warning: card CELL_DYNAMICS='BFGS', ignored
Warning: card PRESS = 0.0, ignored
Warning: card CELL_FACTOR = 2.0, ignored
Warning: card / ignored

     Current dimensions of program PWSCF are:
     Max number of different atomic species (ntypx) = 10
     Max number of k-points (npk) =  40000
     Max angular momentum in pseudopotentials (lmaxx) =  3
               file Al.pbe-nl-kjpaw_psl.1.0.0.UPF: wavefunction(s)  3S 3P renormalized
               file Al.pbe-nl-kjpaw_psl.1.0.0.UPF: wavefunction(s)  3S 3P renormalized
               file Al.pbe-nl-kjpaw_psl.1.0.0.UPF: wavefunction(s)  3S 3P renormalized
               file Al.pbe-nl-kjpaw_psl.1.0.0.UPF: wavefunction(s)  3S 3P renormalized

     Subspace diagonalization in iterative solution of the eigenvalue problem:
     a serial algorithm will be used


     Parallelization info
     --------------------
     sticks:   dense  smooth     PW     G-vecs:    dense   smooth      PW
     Min         229     161     48                 5295     3109     526
     Max         230     162     50                 5298     3110     528
     Sum         919     647    197                21185    12439    2107



     bravais-lattice index     =            0
     lattice parameter (alat)  =       7.6300  a.u.
     unit-cell volume          =     444.1949 (a.u.)^3
     number of atoms/cell      =            4
     number of atomic types    =            4
     number of electrons       =        12.00
     number of Kohn-Sham states=           10
     kinetic-energy cutoff     =      35.0000  Ry
     charge density cutoff     =     200.0000  Ry
     convergence threshold     =      1.0E-06
     mixing beta               =       0.3000
     number of iterations used =           10  TF        mixing
     Exchange-correlation      =  SLA  PW   PBX  PBC ( 1  4  3  4 0 0)

     celldm(1)=   7.630000  celldm(2)=   0.000000  celldm(3)=   0.000000
     celldm(4)=   0.000000  celldm(5)=   0.000000  celldm(6)=   0.000000

     crystal axes: (cart. coord. in units of alat)
               a(1) = (   1.000000   0.016000   0.000000 )  
               a(2) = (   0.016000   1.000000   0.000000 )  
               a(3) = (   0.000000   0.000000   1.000256 )  

     reciprocal axes: (cart. coord. in units 2 pi/alat)
               b(1) = (  1.000256 -0.016004  0.000000 )  
               b(2) = ( -0.016004  1.000256  0.000000 )  
               b(3) = (  0.000000  0.000000  0.999744 )  


     PseudoPot. # 1 for Al read from file:
     /home/ben/espresso/pp/Al.pbe-nl-kjpaw_psl.1.0.0.UPF
     MD5 check sum: 339dbea23cf3ab9a065ad45c0f9085d7
     Pseudo is Projector augmented-wave + core cor, Zval =  3.0
     Generated using "atomic" code by A. Dal Corso  v.5.1
     Shape of augmentation charge: PSQ
     Using radial grid of 1135 points,  4 beta functions with: 
                l(1) =   0
                l(2) =   0
                l(3) =   1
                l(4) =   1
     Q(r) pseudized with 0 coefficients 


     PseudoPot. # 2 for Al read from file:
     /home/ben/espresso/pp/Al.pbe-nl-kjpaw_psl.1.0.0.UPF
     MD5 check sum: 339dbea23cf3ab9a065ad45c0f9085d7
     Pseudo is Projector augmented-wave + core cor, Zval =  3.0
     Generated using "atomic" code by A. Dal Corso  v.5.1
     Shape of augmentation charge: PSQ
     Using radial grid of 1135 points,  4 beta functions with: 
                l(1) =   0
                l(2) =   0
                l(3) =   1
                l(4) =   1
     Q(r) pseudized with 0 coefficients 


     PseudoPot. # 3 for Al read from file:
     /home/ben/espresso/pp/Al.pbe-nl-kjpaw_psl.1.0.0.UPF
     MD5 check sum: 339dbea23cf3ab9a065ad45c0f9085d7
     Pseudo is Projector augmented-wave + core cor, Zval =  3.0
     Generated using "atomic" code by A. Dal Corso  v.5.1
     Shape of augmentation charge: PSQ
     Using radial grid of 1135 points,  4 beta functions with: 
                l(1) =   0
                l(2) =   0
                l(3) =   1
                l(4) =   1
     Q(r) pseudized with 0 coefficients 


     PseudoPot. # 4 for Al read from file:
     /home/ben/espresso/pp/Al.pbe-nl-kjpaw_psl.1.0.0.UPF
     MD5 check sum: 339dbea23cf3ab9a065ad45c0f9085d7
     Pseudo is Projector augmented-wave + core cor, Zval =  3.0
     Generated using "atomic" code by A. Dal Corso  v.5.1
     Shape of augmentation charge: PSQ
     Using radial grid of 1135 points,  4 beta functions with: 
                l(1) =   0
                l(2) =   0
                l(3) =   1
                l(4) =   1
     Q(r) pseudized with 0 coefficients 


     atomic species   valence    mass     pseudopotential
        Al1            3.00    26.98200     Al( 1.00)
        Al2            3.00    26.98200     Al( 1.00)
        Al3            3.00    26.98200     Al( 1.00)
        Al4            3.00    26.98200     Al( 1.00)

      4 Sym. Ops., with inversion, found



   Cartesian axes

     site n.     atom                  positions (alat units)
         1           Al1 tau(   1) = (   0.0000000   0.0000000   0.0000000  )
         2           Al2 tau(   2) = (   0.5080000   0.5080000   0.0000000  )
         3           Al3 tau(   3) = (   0.5000000   0.0080000   0.5001280  )
         4           Al4 tau(   4) = (   0.0080000   0.5000000   0.5001280  )

     number of k points=   250  Marzari-Vanderbilt smearing, width (Ry)=  0.0200

     Number of k-points >= 100: set verbosity='high' to print them.

     Dense  grid:    21185 G-vectors     FFT dimensions: (  36,  36,  36)

     Smooth grid:    12439 G-vectors     FFT dimensions: (  30,  30,  30)

     Estimated max dynamical RAM per process >      19.05Mb

     Estimated total allocated dynamical RAM >      76.20Mb

     Initial potential from superposition of free atoms

     starting charge   11.99084, renormalised to   12.00000
     Starting wfc are   16 randomized atomic wfcs
     Checking if some PAW data can be deallocated... 

     total cpu time spent up to now is        6.0 secs

     per-process dynamical memory:    29.5 Mb

     Self-consistent Calculation

     iteration #  1     ecut=    35.00 Ry     beta=0.30
     Davidson diagonalization with overlap
     ethr =  1.00E-02,  avg # of iterations =  3.4

     Threshold (ethr) on eigenvalues was too large:
     Diagonalizing with lowered threshold

     Davidson diagonalization with overlap
     ethr =  1.96E-04,  avg # of iterations =  3.8

     total cpu time spent up to now is       31.7 secs

     total energy              =    -158.01484193 Ry
     Harris-Foulkes estimate   =    -158.01688354 Ry
     estimated scf accuracy    <       0.02271995 Ry

     iteration #  2     ecut=    35.00 Ry     beta=0.30
     Davidson diagonalization with overlap
     ethr =  1.89E-04,  avg # of iterations =  1.0

     total cpu time spent up to now is       45.6 secs

     total energy              =    -158.01061279 Ry
     Harris-Foulkes estimate   =    -158.01495324 Ry
     estimated scf accuracy    <       0.01414836 Ry

     iteration #  3     ecut=    35.00 Ry     beta=0.30
     Davidson diagonalization with overlap
     ethr =  1.18E-04,  avg # of iterations =  1.1

     total cpu time spent up to now is       53.4 secs

     total energy              =    -158.01087710 Ry
     Harris-Foulkes estimate   =    -158.01086557 Ry
     estimated scf accuracy    <       0.00003589 Ry

     iteration #  4     ecut=    35.00 Ry     beta=0.30
     Davidson diagonalization with overlap
     ethr =  2.99E-07,  avg # of iterations =  4.2

     total cpu time spent up to now is       66.0 secs

     total energy              =    -158.01095177 Ry
     Harris-Foulkes estimate   =    -158.01093585 Ry
     estimated scf accuracy    <       0.00001743 Ry

     iteration #  5     ecut=    35.00 Ry     beta=0.30
     Davidson diagonalization with overlap
     ethr =  1.45E-07,  avg # of iterations =  1.0

     total cpu time spent up to now is       78.2 secs

     total energy              =    -158.01094990 Ry
     Harris-Foulkes estimate   =    -158.01095270 Ry
     estimated scf accuracy    <       0.00000623 Ry

     iteration #  6     ecut=    35.00 Ry     beta=0.30
     Davidson diagonalization with overlap
     ethr =  5.19E-08,  avg # of iterations =  2.0

     total cpu time spent up to now is       84.6 secs

     End of self-consistent calculation

     Number of k-points >= 100: set verbosity='high' to print the bands.

     the Fermi energy is     7.9653 ev

!    total energy              =    -158.01095056 Ry
     Harris-Foulkes estimate   =    -158.01095076 Ry
     estimated scf accuracy    <       0.00000007 Ry

     total all-electron energy =     -1942.582078 Ry

     The total energy is the sum of the following terms:

     one-electron contribution =      12.67391375 Ry
     hartree contribution      =       0.02520234 Ry
     xc contribution           =     -10.36932804 Ry
     ewald contribution        =     -21.63008221 Ry
     one-center paw contrib.   =    -138.71052639 Ry
     smearing contrib. (-TS)   =      -0.00013002 Ry

     convergence has been achieved in   6 iterations

     Forces acting on atoms (Ry/au):

     atom    1 type  1   force =     0.00000000    0.00000000    0.00000000
     atom    2 type  2   force =     0.00000000    0.00000000    0.00000000
     atom    3 type  3   force =     0.00000000    0.00000000    0.00000000
     atom    4 type  4   force =     0.00000000    0.00000000    0.00000000

     Total force =     0.000000     Total SCF correction =     0.000000


     entering subroutine stress ...

          total   stress  (Ry/bohr**3)                   (kbar)     P=    0.41
   0.00001512  -0.00006594   0.00000000          2.22     -9.70      0.00
  -0.00006594   0.00001512   0.00000000         -9.70      2.22      0.00
   0.00000000   0.00000000  -0.00002193          0.00      0.00     -3.23


     Writing output data file template.save

     init_run     :      4.78s CPU      4.91s WALL (       1 calls)
     electrons    :     75.05s CPU     78.56s WALL (       1 calls)
     forces       :      0.90s CPU      0.92s WALL (       1 calls)
     stress       :      2.93s CPU      2.97s WALL (       1 calls)

     Called by init_run:
     wfcinit      :      3.60s CPU      3.68s WALL (       1 calls)
     potinit      :      0.32s CPU      0.34s WALL (       1 calls)

     Called by electrons:
     c_bands      :     61.97s CPU     64.97s WALL (       7 calls)
     sum_band     :     11.99s CPU     12.47s WALL (       7 calls)
     v_of_rho     :      0.14s CPU      0.15s WALL (       7 calls)
     newd         :      0.24s CPU      0.25s WALL (       7 calls)
     PAW_pot      :      0.78s CPU      0.80s WALL (       7 calls)
     mix_rho      :      0.02s CPU      0.02s WALL (       7 calls)

     Called by c_bands:
     init_us_2    :      1.47s CPU      1.50s WALL (    4250 calls)
     cegterg      :     60.12s CPU     63.08s WALL (    1750 calls)

     Called by sum_band:
     sum_band:bec :      0.02s CPU      0.03s WALL (    1750 calls)
     addusdens    :      0.25s CPU      0.26s WALL (       7 calls)

     Called by *egterg:
     h_psi        :     55.88s CPU     58.78s WALL (    6134 calls)
     s_psi        :      1.00s CPU      1.00s WALL (    6134 calls)
     g_psi        :      0.12s CPU      0.13s WALL (    4134 calls)
     cdiaghg      :      2.11s CPU      2.10s WALL (    5634 calls)

     Called by h_psi:
     h_psi:pot    :     55.74s CPU     58.64s WALL (    6134 calls)
     h_psi:calbec :      1.65s CPU      1.63s WALL (    6134 calls)
     vloc_psi     :     53.16s CPU     55.87s WALL (    6134 calls)
     add_vuspsi   :      0.90s CPU      1.11s WALL (    6134 calls)

     General routines
     calbec       :      2.56s CPU      2.59s WALL (    9134 calls)
     fft          :      0.13s CPU      0.15s WALL (     137 calls)
     ffts         :      0.02s CPU      0.01s WALL (      14 calls)
     fftw         :     60.67s CPU     63.76s WALL (  115008 calls)
     interpolate  :      0.03s CPU      0.03s WALL (      14 calls)
     davcio       :      0.01s CPU      0.03s WALL (     250 calls)

     Parallel routines
     fft_scatter  :     15.01s CPU     15.76s WALL (  115159 calls)

     PWSCF        :  1m26.23s CPU     1m30.18s WALL


   This run was terminated on:  11:19: 9  30May2017            

=------------------------------------------------------------------------------=
   JOB DONE.
=------------------------------------------------------------------------------=
