
     Program PWSCF v.6.0 (svn rev. 13079) starts on 30May2017 at 11:14:35 

     This program is part of the open-source Quantum ESPRESSO suite
     for quantum simulation of materials; please cite
         "P. Giannozzi et al., J. Phys.:Condens. Matter 21 395502 (2009);
          URL http://www.quantum-espresso.org", 
     in publications or presentations arising from this work. More details at
     http://www.quantum-espresso.org/quote

     Parallel version (MPI), running on     4 processors
     R & G space division:  proc/nbgrp/npool/nimage =       4
     Waiting for input...
     Reading input from standard input
Warning: card &IONS ignored
Warning: card ION_DYNAMICS='BFGS', ignored
Warning: card / ignored
Warning: card &CELL ignored
Warning: card CELL_DYNAMICS='BFGS', ignored
Warning: card PRESS = 0.0, ignored
Warning: card CELL_FACTOR = 2.0, ignored
Warning: card / ignored

     Current dimensions of program PWSCF are:
     Max number of different atomic species (ntypx) = 10
     Max number of k-points (npk) =  40000
     Max angular momentum in pseudopotentials (lmaxx) =  3
               file Al.pbe-nl-kjpaw_psl.1.0.0.UPF: wavefunction(s)  3S 3P renormalized
               file Al.pbe-nl-kjpaw_psl.1.0.0.UPF: wavefunction(s)  3S 3P renormalized
               file Al.pbe-nl-kjpaw_psl.1.0.0.UPF: wavefunction(s)  3S 3P renormalized
               file Al.pbe-nl-kjpaw_psl.1.0.0.UPF: wavefunction(s)  3S 3P renormalized

     Subspace diagonalization in iterative solution of the eigenvalue problem:
     a serial algorithm will be used


     Parallelization info
     --------------------
     sticks:   dense  smooth     PW     G-vecs:    dense   smooth      PW
     Min         231     162     48                 5302     3112     524
     Max         232     163     49                 5303     3113     527
     Sum         927     649    193                21209    12449    2103



     bravais-lattice index     =            0
     lattice parameter (alat)  =       7.6300  a.u.
     unit-cell volume          =     444.1949 (a.u.)^3
     number of atoms/cell      =            4
     number of atomic types    =            4
     number of electrons       =        12.00
     number of Kohn-Sham states=           10
     kinetic-energy cutoff     =      35.0000  Ry
     charge density cutoff     =     200.0000  Ry
     convergence threshold     =      1.0E-06
     mixing beta               =       0.3000
     number of iterations used =           10  TF        mixing
     Exchange-correlation      =  SLA  PW   PBX  PBC ( 1  4  3  4 0 0)

     celldm(1)=   7.630000  celldm(2)=   0.000000  celldm(3)=   0.000000
     celldm(4)=   0.000000  celldm(5)=   0.000000  celldm(6)=   0.000000

     crystal axes: (cart. coord. in units of alat)
               a(1) = (   1.000000   0.012000   0.000000 )  
               a(2) = (   0.012000   1.000000   0.000000 )  
               a(3) = (   0.000000   0.000000   1.000144 )  

     reciprocal axes: (cart. coord. in units 2 pi/alat)
               b(1) = (  1.000144 -0.012002  0.000000 )  
               b(2) = ( -0.012002  1.000144  0.000000 )  
               b(3) = (  0.000000  0.000000  0.999856 )  


     PseudoPot. # 1 for Al read from file:
     /home/ben/espresso/pp/Al.pbe-nl-kjpaw_psl.1.0.0.UPF
     MD5 check sum: 339dbea23cf3ab9a065ad45c0f9085d7
     Pseudo is Projector augmented-wave + core cor, Zval =  3.0
     Generated using "atomic" code by A. Dal Corso  v.5.1
     Shape of augmentation charge: PSQ
     Using radial grid of 1135 points,  4 beta functions with: 
                l(1) =   0
                l(2) =   0
                l(3) =   1
                l(4) =   1
     Q(r) pseudized with 0 coefficients 


     PseudoPot. # 2 for Al read from file:
     /home/ben/espresso/pp/Al.pbe-nl-kjpaw_psl.1.0.0.UPF
     MD5 check sum: 339dbea23cf3ab9a065ad45c0f9085d7
     Pseudo is Projector augmented-wave + core cor, Zval =  3.0
     Generated using "atomic" code by A. Dal Corso  v.5.1
     Shape of augmentation charge: PSQ
     Using radial grid of 1135 points,  4 beta functions with: 
                l(1) =   0
                l(2) =   0
                l(3) =   1
                l(4) =   1
     Q(r) pseudized with 0 coefficients 


     PseudoPot. # 3 for Al read from file:
     /home/ben/espresso/pp/Al.pbe-nl-kjpaw_psl.1.0.0.UPF
     MD5 check sum: 339dbea23cf3ab9a065ad45c0f9085d7
     Pseudo is Projector augmented-wave + core cor, Zval =  3.0
     Generated using "atomic" code by A. Dal Corso  v.5.1
     Shape of augmentation charge: PSQ
     Using radial grid of 1135 points,  4 beta functions with: 
                l(1) =   0
                l(2) =   0
                l(3) =   1
                l(4) =   1
     Q(r) pseudized with 0 coefficients 


     PseudoPot. # 4 for Al read from file:
     /home/ben/espresso/pp/Al.pbe-nl-kjpaw_psl.1.0.0.UPF
     MD5 check sum: 339dbea23cf3ab9a065ad45c0f9085d7
     Pseudo is Projector augmented-wave + core cor, Zval =  3.0
     Generated using "atomic" code by A. Dal Corso  v.5.1
     Shape of augmentation charge: PSQ
     Using radial grid of 1135 points,  4 beta functions with: 
                l(1) =   0
                l(2) =   0
                l(3) =   1
                l(4) =   1
     Q(r) pseudized with 0 coefficients 


     atomic species   valence    mass     pseudopotential
        Al1            3.00    26.98200     Al( 1.00)
        Al2            3.00    26.98200     Al( 1.00)
        Al3            3.00    26.98200     Al( 1.00)
        Al4            3.00    26.98200     Al( 1.00)

      4 Sym. Ops., with inversion, found



   Cartesian axes

     site n.     atom                  positions (alat units)
         1           Al1 tau(   1) = (   0.0000000   0.0000000   0.0000000  )
         2           Al2 tau(   2) = (   0.5060000   0.5060000   0.0000000  )
         3           Al3 tau(   3) = (   0.5000000   0.0060000   0.5000720  )
         4           Al4 tau(   4) = (   0.0060000   0.5000000   0.5000720  )

     number of k points=   250  Marzari-Vanderbilt smearing, width (Ry)=  0.0200

     Number of k-points >= 100: set verbosity='high' to print them.

     Dense  grid:    21209 G-vectors     FFT dimensions: (  36,  36,  36)

     Smooth grid:    12449 G-vectors     FFT dimensions: (  30,  30,  30)

     Estimated max dynamical RAM per process >      19.05Mb

     Estimated total allocated dynamical RAM >      76.21Mb

     Initial potential from superposition of free atoms

     starting charge   11.99084, renormalised to   12.00000
     Starting wfc are   16 randomized atomic wfcs
     Checking if some PAW data can be deallocated... 

     total cpu time spent up to now is       15.1 secs

     per-process dynamical memory:    29.3 Mb

     Self-consistent Calculation

     iteration #  1     ecut=    35.00 Ry     beta=0.30
     Davidson diagonalization with overlap
     ethr =  1.00E-02,  avg # of iterations =  3.4

     Threshold (ethr) on eigenvalues was too large:
     Diagonalizing with lowered threshold

     Davidson diagonalization with overlap
     ethr =  1.96E-04,  avg # of iterations =  3.9

     total cpu time spent up to now is       34.2 secs

     total energy              =    -158.01505060 Ry
     Harris-Foulkes estimate   =    -158.01709372 Ry
     estimated scf accuracy    <       0.02269603 Ry

     iteration #  2     ecut=    35.00 Ry     beta=0.30
     Davidson diagonalization with overlap
     ethr =  1.89E-04,  avg # of iterations =  1.0

     total cpu time spent up to now is       45.4 secs

     total energy              =    -158.01081226 Ry
     Harris-Foulkes estimate   =    -158.01515964 Ry
     estimated scf accuracy    <       0.01413600 Ry

     iteration #  3     ecut=    35.00 Ry     beta=0.30
     Davidson diagonalization with overlap
     ethr =  1.18E-04,  avg # of iterations =  1.0

     total cpu time spent up to now is       50.8 secs

     total energy              =    -158.01107674 Ry
     Harris-Foulkes estimate   =    -158.01106484 Ry
     estimated scf accuracy    <       0.00003593 Ry

     iteration #  4     ecut=    35.00 Ry     beta=0.30
     Davidson diagonalization with overlap
     c_bands:  1 eigenvalues not converged
     ethr =  2.99E-07,  avg # of iterations =  4.1

     total cpu time spent up to now is       70.4 secs

     total energy              =    -158.01115229 Ry
     Harris-Foulkes estimate   =    -158.01113629 Ry
     estimated scf accuracy    <       0.00001723 Ry

     iteration #  5     ecut=    35.00 Ry     beta=0.30
     Davidson diagonalization with overlap
     ethr =  1.44E-07,  avg # of iterations =  1.0

     total cpu time spent up to now is       75.7 secs

     total energy              =    -158.01115040 Ry
     Harris-Foulkes estimate   =    -158.01115319 Ry
     estimated scf accuracy    <       0.00000617 Ry

     iteration #  6     ecut=    35.00 Ry     beta=0.30
     Davidson diagonalization with overlap
     ethr =  5.14E-08,  avg # of iterations =  2.0

     total cpu time spent up to now is       81.9 secs

     End of self-consistent calculation

     Number of k-points >= 100: set verbosity='high' to print the bands.

     the Fermi energy is     7.9762 ev

!    total energy              =    -158.01115105 Ry
     Harris-Foulkes estimate   =    -158.01115124 Ry
     estimated scf accuracy    <       0.00000007 Ry

     total all-electron energy =     -1942.582279 Ry

     The total energy is the sum of the following terms:

     one-electron contribution =      12.67466109 Ry
     hartree contribution      =       0.02483344 Ry
     xc contribution           =     -10.36898189 Ry
     ewald contribution        =     -21.63108699 Ry
     one-center paw contrib.   =    -138.71027695 Ry
     smearing contrib. (-TS)   =      -0.00029977 Ry

     convergence has been achieved in   6 iterations

     Forces acting on atoms (Ry/au):

     atom    1 type  1   force =     0.00000000    0.00000000    0.00000000
     atom    2 type  2   force =     0.00000000    0.00000000    0.00000000
     atom    3 type  3   force =     0.00000000    0.00000000    0.00000000
     atom    4 type  4   force =     0.00000000    0.00000000    0.00000000

     Total force =     0.000000     Total SCF correction =     0.000000


     entering subroutine stress ...

          total   stress  (Ry/bohr**3)                   (kbar)     P=    0.05
   0.00000780  -0.00004663   0.00000000          1.15     -6.86      0.00
  -0.00004663   0.00000780   0.00000000         -6.86      1.15      0.00
   0.00000000   0.00000000  -0.00001461          0.00      0.00     -2.15


     Writing output data file template.save

     init_run     :     13.13s CPU     14.04s WALL (       1 calls)
     electrons    :     64.62s CPU     66.74s WALL (       1 calls)
     forces       :      0.95s CPU      0.96s WALL (       1 calls)
     stress       :      6.54s CPU      6.78s WALL (       1 calls)

     Called by init_run:
     wfcinit      :     10.62s CPU     11.34s WALL (       1 calls)
     potinit      :      1.02s CPU      1.09s WALL (       1 calls)

     Called by electrons:
     c_bands      :     52.86s CPU     54.47s WALL (       7 calls)
     sum_band     :     10.92s CPU     11.40s WALL (       7 calls)
     v_of_rho     :      0.14s CPU      0.15s WALL (       7 calls)
     newd         :      0.21s CPU      0.23s WALL (       7 calls)
     PAW_pot      :      0.79s CPU      0.82s WALL (       7 calls)
     mix_rho      :      0.01s CPU      0.01s WALL (       7 calls)

     Called by c_bands:
     init_us_2    :      1.50s CPU      1.58s WALL (    4250 calls)
     cegterg      :     51.32s CPU     52.92s WALL (    1750 calls)

     Called by sum_band:
     sum_band:bec :      0.04s CPU      0.04s WALL (    1750 calls)
     addusdens    :      0.21s CPU      0.22s WALL (       7 calls)

     Called by *egterg:
     h_psi        :     54.17s CPU     56.33s WALL (    6094 calls)
     s_psi        :      1.00s CPU      1.02s WALL (    6094 calls)
     g_psi        :      0.18s CPU      0.13s WALL (    4094 calls)
     cdiaghg      :      1.98s CPU      1.98s WALL (    5594 calls)

     Called by h_psi:
     h_psi:pot    :     53.98s CPU     56.19s WALL (    6094 calls)
     h_psi:calbec :      1.42s CPU      1.57s WALL (    6094 calls)
     vloc_psi     :     51.52s CPU     53.47s WALL (    6094 calls)
     add_vuspsi   :      1.01s CPU      1.11s WALL (    6094 calls)

     General routines
     calbec       :      2.74s CPU      2.98s WALL (    9094 calls)
     fft          :      0.35s CPU      0.37s WALL (     137 calls)
     ffts         :      0.01s CPU      0.01s WALL (      14 calls)
     fftw         :     57.99s CPU     60.44s WALL (  114938 calls)
     interpolate  :      0.04s CPU      0.03s WALL (      14 calls)
     davcio       :      0.02s CPU      0.03s WALL (     250 calls)

     Parallel routines
     fft_scatter  :     12.22s CPU     12.86s WALL (  115089 calls)

     PWSCF        :  1m27.83s CPU     1m31.41s WALL


   This run was terminated on:  11:16: 7  30May2017            

=------------------------------------------------------------------------------=
   JOB DONE.
=------------------------------------------------------------------------------=
