
     Program PWSCF v.6.0 (svn rev. 13079) starts on 30May2017 at 11:13: 9 

     This program is part of the open-source Quantum ESPRESSO suite
     for quantum simulation of materials; please cite
         "P. Giannozzi et al., J. Phys.:Condens. Matter 21 395502 (2009);
          URL http://www.quantum-espresso.org", 
     in publications or presentations arising from this work. More details at
     http://www.quantum-espresso.org/quote

     Parallel version (MPI), running on     4 processors
     R & G space division:  proc/nbgrp/npool/nimage =       4
     Waiting for input...
     Reading input from standard input
Warning: card &IONS ignored
Warning: card ION_DYNAMICS='BFGS', ignored
Warning: card / ignored
Warning: card &CELL ignored
Warning: card CELL_DYNAMICS='BFGS', ignored
Warning: card PRESS = 0.0, ignored
Warning: card CELL_FACTOR = 2.0, ignored
Warning: card / ignored

     Current dimensions of program PWSCF are:
     Max number of different atomic species (ntypx) = 10
     Max number of k-points (npk) =  40000
     Max angular momentum in pseudopotentials (lmaxx) =  3
               file Al.pbe-nl-kjpaw_psl.1.0.0.UPF: wavefunction(s)  3S 3P renormalized
               file Al.pbe-nl-kjpaw_psl.1.0.0.UPF: wavefunction(s)  3S 3P renormalized
               file Al.pbe-nl-kjpaw_psl.1.0.0.UPF: wavefunction(s)  3S 3P renormalized
               file Al.pbe-nl-kjpaw_psl.1.0.0.UPF: wavefunction(s)  3S 3P renormalized

     Subspace diagonalization in iterative solution of the eigenvalue problem:
     a serial algorithm will be used


     Parallelization info
     --------------------
     sticks:   dense  smooth     PW     G-vecs:    dense   smooth      PW
     Min         232     162     48                 5307     3108     524
     Max         233     164     49                 5308     3109     527
     Sum         929     653    193                21231    12433    2103



     bravais-lattice index     =            0
     lattice parameter (alat)  =       7.6300  a.u.
     unit-cell volume          =     444.1949 (a.u.)^3
     number of atoms/cell      =            4
     number of atomic types    =            4
     number of electrons       =        12.00
     number of Kohn-Sham states=           10
     kinetic-energy cutoff     =      35.0000  Ry
     charge density cutoff     =     200.0000  Ry
     convergence threshold     =      1.0E-06
     mixing beta               =       0.3000
     number of iterations used =           10  TF        mixing
     Exchange-correlation      =  SLA  PW   PBX  PBC ( 1  4  3  4 0 0)

     celldm(1)=   7.630000  celldm(2)=   0.000000  celldm(3)=   0.000000
     celldm(4)=   0.000000  celldm(5)=   0.000000  celldm(6)=   0.000000

     crystal axes: (cart. coord. in units of alat)
               a(1) = (   1.000000   0.010000   0.000000 )  
               a(2) = (   0.010000   1.000000   0.000000 )  
               a(3) = (   0.000000   0.000000   1.000100 )  

     reciprocal axes: (cart. coord. in units 2 pi/alat)
               b(1) = (  1.000100 -0.010001  0.000000 )  
               b(2) = ( -0.010001  1.000100  0.000000 )  
               b(3) = (  0.000000  0.000000  0.999900 )  


     PseudoPot. # 1 for Al read from file:
     /home/ben/espresso/pp/Al.pbe-nl-kjpaw_psl.1.0.0.UPF
     MD5 check sum: 339dbea23cf3ab9a065ad45c0f9085d7
     Pseudo is Projector augmented-wave + core cor, Zval =  3.0
     Generated using "atomic" code by A. Dal Corso  v.5.1
     Shape of augmentation charge: PSQ
     Using radial grid of 1135 points,  4 beta functions with: 
                l(1) =   0
                l(2) =   0
                l(3) =   1
                l(4) =   1
     Q(r) pseudized with 0 coefficients 


     PseudoPot. # 2 for Al read from file:
     /home/ben/espresso/pp/Al.pbe-nl-kjpaw_psl.1.0.0.UPF
     MD5 check sum: 339dbea23cf3ab9a065ad45c0f9085d7
     Pseudo is Projector augmented-wave + core cor, Zval =  3.0
     Generated using "atomic" code by A. Dal Corso  v.5.1
     Shape of augmentation charge: PSQ
     Using radial grid of 1135 points,  4 beta functions with: 
                l(1) =   0
                l(2) =   0
                l(3) =   1
                l(4) =   1
     Q(r) pseudized with 0 coefficients 


     PseudoPot. # 3 for Al read from file:
     /home/ben/espresso/pp/Al.pbe-nl-kjpaw_psl.1.0.0.UPF
     MD5 check sum: 339dbea23cf3ab9a065ad45c0f9085d7
     Pseudo is Projector augmented-wave + core cor, Zval =  3.0
     Generated using "atomic" code by A. Dal Corso  v.5.1
     Shape of augmentation charge: PSQ
     Using radial grid of 1135 points,  4 beta functions with: 
                l(1) =   0
                l(2) =   0
                l(3) =   1
                l(4) =   1
     Q(r) pseudized with 0 coefficients 


     PseudoPot. # 4 for Al read from file:
     /home/ben/espresso/pp/Al.pbe-nl-kjpaw_psl.1.0.0.UPF
     MD5 check sum: 339dbea23cf3ab9a065ad45c0f9085d7
     Pseudo is Projector augmented-wave + core cor, Zval =  3.0
     Generated using "atomic" code by A. Dal Corso  v.5.1
     Shape of augmentation charge: PSQ
     Using radial grid of 1135 points,  4 beta functions with: 
                l(1) =   0
                l(2) =   0
                l(3) =   1
                l(4) =   1
     Q(r) pseudized with 0 coefficients 


     atomic species   valence    mass     pseudopotential
        Al1            3.00    26.98200     Al( 1.00)
        Al2            3.00    26.98200     Al( 1.00)
        Al3            3.00    26.98200     Al( 1.00)
        Al4            3.00    26.98200     Al( 1.00)

      4 Sym. Ops., with inversion, found



   Cartesian axes

     site n.     atom                  positions (alat units)
         1           Al1 tau(   1) = (   0.0000000   0.0000000   0.0000000  )
         2           Al2 tau(   2) = (   0.5050000   0.5050000   0.0000000  )
         3           Al3 tau(   3) = (   0.5000000   0.0050000   0.5000500  )
         4           Al4 tau(   4) = (   0.0050000   0.5000000   0.5000500  )

     number of k points=   250  Marzari-Vanderbilt smearing, width (Ry)=  0.0200

     Number of k-points >= 100: set verbosity='high' to print them.

     Dense  grid:    21231 G-vectors     FFT dimensions: (  36,  36,  36)

     Smooth grid:    12433 G-vectors     FFT dimensions: (  30,  30,  30)

     Estimated max dynamical RAM per process >      19.05Mb

     Estimated total allocated dynamical RAM >      76.22Mb

     Initial potential from superposition of free atoms

     starting charge   11.99084, renormalised to   12.00000
     Starting wfc are   16 randomized atomic wfcs
     Checking if some PAW data can be deallocated... 

     total cpu time spent up to now is        5.6 secs

     per-process dynamical memory:    29.4 Mb

     Self-consistent Calculation

     iteration #  1     ecut=    35.00 Ry     beta=0.30
     Davidson diagonalization with overlap
     ethr =  1.00E-02,  avg # of iterations =  3.4

     Threshold (ethr) on eigenvalues was too large:
     Diagonalizing with lowered threshold

     Davidson diagonalization with overlap
     ethr =  1.96E-04,  avg # of iterations =  3.9

     total cpu time spent up to now is       31.5 secs

     total energy              =    -158.01512738 Ry
     Harris-Foulkes estimate   =    -158.01717145 Ry
     estimated scf accuracy    <       0.02268857 Ry

     iteration #  2     ecut=    35.00 Ry     beta=0.30
     Davidson diagonalization with overlap
     ethr =  1.89E-04,  avg # of iterations =  1.0

     total cpu time spent up to now is       45.8 secs

     total energy              =    -158.01088619 Ry
     Harris-Foulkes estimate   =    -158.01523633 Ry
     estimated scf accuracy    <       0.01413190 Ry

     iteration #  3     ecut=    35.00 Ry     beta=0.30
     Davidson diagonalization with overlap
     ethr =  1.18E-04,  avg # of iterations =  1.0

     total cpu time spent up to now is       51.8 secs

     total energy              =    -158.01115116 Ry
     Harris-Foulkes estimate   =    -158.01113924 Ry
     estimated scf accuracy    <       0.00003592 Ry

     iteration #  4     ecut=    35.00 Ry     beta=0.30
     Davidson diagonalization with overlap
     ethr =  2.99E-07,  avg # of iterations =  4.1

     total cpu time spent up to now is       62.8 secs

     total energy              =    -158.01122733 Ry
     Harris-Foulkes estimate   =    -158.01121127 Ry
     estimated scf accuracy    <       0.00001722 Ry

     iteration #  5     ecut=    35.00 Ry     beta=0.30
     Davidson diagonalization with overlap
     ethr =  1.43E-07,  avg # of iterations =  1.0

     total cpu time spent up to now is       75.7 secs

     total energy              =    -158.01122539 Ry
     Harris-Foulkes estimate   =    -158.01122822 Ry
     estimated scf accuracy    <       0.00000623 Ry

     iteration #  6     ecut=    35.00 Ry     beta=0.30
     Davidson diagonalization with overlap
     ethr =  5.19E-08,  avg # of iterations =  2.0

     total cpu time spent up to now is       81.6 secs

     End of self-consistent calculation

     Number of k-points >= 100: set verbosity='high' to print the bands.

     the Fermi energy is     7.9809 ev

!    total energy              =    -158.01122604 Ry
     Harris-Foulkes estimate   =    -158.01122622 Ry
     estimated scf accuracy    <       0.00000006 Ry

     total all-electron energy =     -1942.582354 Ry

     The total energy is the sum of the following terms:

     one-electron contribution =      12.67496223 Ry
     hartree contribution      =       0.02468622 Ry
     xc contribution           =     -10.36884218 Ry
     ewald contribution        =     -21.63148134 Ry
     one-center paw contrib.   =    -138.71017450 Ry
     smearing contrib. (-TS)   =      -0.00037648 Ry

     convergence has been achieved in   6 iterations

     Forces acting on atoms (Ry/au):

     atom    1 type  1   force =     0.00000000    0.00000000    0.00000000
     atom    2 type  2   force =     0.00000000    0.00000000    0.00000000
     atom    3 type  3   force =     0.00000000    0.00000000    0.00000000
     atom    4 type  4   force =     0.00000000    0.00000000    0.00000000

     Total force =     0.000000     Total SCF correction =     0.000000


     entering subroutine stress ...

          total   stress  (Ry/bohr**3)                   (kbar)     P=   -0.10
   0.00000469  -0.00003780   0.00000000          0.69     -5.56      0.00
  -0.00003780   0.00000468   0.00000000         -5.56      0.69      0.00
   0.00000000   0.00000000  -0.00001134          0.00      0.00     -1.67


     Writing output data file template.save

     init_run     :      4.40s CPU      4.46s WALL (       1 calls)
     electrons    :     73.24s CPU     76.01s WALL (       1 calls)
     forces       :      0.94s CPU      0.96s WALL (       1 calls)
     stress       :      2.50s CPU      2.62s WALL (       1 calls)

     Called by init_run:
     wfcinit      :      3.25s CPU      3.30s WALL (       1 calls)
     potinit      :      0.33s CPU      0.34s WALL (       1 calls)

     Called by electrons:
     c_bands      :     61.70s CPU     64.00s WALL (       7 calls)
     sum_band     :     10.54s CPU     10.96s WALL (       7 calls)
     v_of_rho     :      0.13s CPU      0.14s WALL (       7 calls)
     newd         :      0.21s CPU      0.22s WALL (       7 calls)
     PAW_pot      :      0.75s CPU      0.78s WALL (       7 calls)
     mix_rho      :      0.02s CPU      0.02s WALL (       7 calls)

     Called by c_bands:
     init_us_2    :      1.33s CPU      1.47s WALL (    4250 calls)
     cegterg      :     59.87s CPU     62.13s WALL (    1750 calls)

     Called by sum_band:
     sum_band:bec :      0.04s CPU      0.03s WALL (    1750 calls)
     addusdens    :      0.23s CPU      0.25s WALL (       7 calls)

     Called by *egterg:
     h_psi        :     55.81s CPU     57.77s WALL (    6090 calls)
     s_psi        :      1.00s CPU      1.05s WALL (    6090 calls)
     g_psi        :      0.16s CPU      0.14s WALL (    4090 calls)
     cdiaghg      :      1.88s CPU      2.06s WALL (    5590 calls)

     Called by h_psi:
     h_psi:pot    :     55.66s CPU     57.63s WALL (    6090 calls)
     h_psi:calbec :      1.49s CPU      1.57s WALL (    6090 calls)
     vloc_psi     :     53.11s CPU     54.91s WALL (    6090 calls)
     add_vuspsi   :      1.05s CPU      1.12s WALL (    6090 calls)

     General routines
     calbec       :      2.18s CPU      2.34s WALL (    9090 calls)
     fft          :      0.16s CPU      0.15s WALL (     137 calls)
     ffts         :      0.02s CPU      0.01s WALL (      14 calls)
     fftw         :     59.58s CPU     61.48s WALL (  114928 calls)
     interpolate  :      0.03s CPU      0.02s WALL (      14 calls)
     davcio       :      0.00s CPU      0.01s WALL (     250 calls)

     Parallel routines
     fft_scatter  :     12.44s CPU     12.72s WALL (  115079 calls)

     PWSCF        :  1m22.62s CPU     1m25.80s WALL


   This run was terminated on:  11:14:35  30May2017            

=------------------------------------------------------------------------------=
   JOB DONE.
=------------------------------------------------------------------------------=
