
     Program PWSCF v.6.0 (svn rev. 13079) starts on 30May2017 at 10:41: 0 

     This program is part of the open-source Quantum ESPRESSO suite
     for quantum simulation of materials; please cite
         "P. Giannozzi et al., J. Phys.:Condens. Matter 21 395502 (2009);
          URL http://www.quantum-espresso.org", 
     in publications or presentations arising from this work. More details at
     http://www.quantum-espresso.org/quote

     Parallel version (MPI), running on     4 processors
     R & G space division:  proc/nbgrp/npool/nimage =       4
     Waiting for input...
     Reading input from standard input
Warning: card &IONS ignored
Warning: card ION_DYNAMICS='BFGS', ignored
Warning: card / ignored
Warning: card &CELL ignored
Warning: card CELL_DYNAMICS='BFGS', ignored
Warning: card PRESS = 0.0, ignored
Warning: card CELL_FACTOR = 2.0, ignored
Warning: card / ignored

     Current dimensions of program PWSCF are:
     Max number of different atomic species (ntypx) = 10
     Max number of k-points (npk) =  40000
     Max angular momentum in pseudopotentials (lmaxx) =  3
               file Al.pbe-nl-kjpaw_psl.1.0.0.UPF: wavefunction(s)  3S 3P renormalized
               file Al.pbe-nl-kjpaw_psl.1.0.0.UPF: wavefunction(s)  3S 3P renormalized
               file Al.pbe-nl-kjpaw_psl.1.0.0.UPF: wavefunction(s)  3S 3P renormalized
               file Al.pbe-nl-kjpaw_psl.1.0.0.UPF: wavefunction(s)  3S 3P renormalized

     Subspace diagonalization in iterative solution of the eigenvalue problem:
     a serial algorithm will be used


     Parallelization info
     --------------------
     sticks:   dense  smooth     PW     G-vecs:    dense   smooth      PW
     Min         233     164     48                 5311     3132     524
     Max         234     165     49                 5313     3135     527
     Sum         933     657    193                21247    12533    2103



     bravais-lattice index     =            0
     lattice parameter (alat)  =       7.6300  a.u.
     unit-cell volume          =     444.1949 (a.u.)^3
     number of atoms/cell      =            4
     number of atomic types    =            4
     number of electrons       =        12.00
     number of Kohn-Sham states=           10
     kinetic-energy cutoff     =      35.0000  Ry
     charge density cutoff     =     200.0000  Ry
     convergence threshold     =      1.0E-06
     mixing beta               =       0.3000
     number of iterations used =           10  TF        mixing
     Exchange-correlation      =  SLA  PW   PBX  PBC ( 1  4  3  4 0 0)

     celldm(1)=   7.630000  celldm(2)=   0.000000  celldm(3)=   0.000000
     celldm(4)=   0.000000  celldm(5)=   0.000000  celldm(6)=   0.000000

     crystal axes: (cart. coord. in units of alat)
               a(1) = (   1.000000   0.000000   0.000000 )  
               a(2) = (   0.000000   1.000000   0.000000 )  
               a(3) = (   0.000000   0.000000   1.000000 )  

     reciprocal axes: (cart. coord. in units 2 pi/alat)
               b(1) = (  1.000000  0.000000  0.000000 )  
               b(2) = (  0.000000  1.000000  0.000000 )  
               b(3) = (  0.000000  0.000000  1.000000 )  


     PseudoPot. # 1 for Al read from file:
     /home/ben/espresso/pp/Al.pbe-nl-kjpaw_psl.1.0.0.UPF
     MD5 check sum: 339dbea23cf3ab9a065ad45c0f9085d7
     Pseudo is Projector augmented-wave + core cor, Zval =  3.0
     Generated using "atomic" code by A. Dal Corso  v.5.1
     Shape of augmentation charge: PSQ
     Using radial grid of 1135 points,  4 beta functions with: 
                l(1) =   0
                l(2) =   0
                l(3) =   1
                l(4) =   1
     Q(r) pseudized with 0 coefficients 


     PseudoPot. # 2 for Al read from file:
     /home/ben/espresso/pp/Al.pbe-nl-kjpaw_psl.1.0.0.UPF
     MD5 check sum: 339dbea23cf3ab9a065ad45c0f9085d7
     Pseudo is Projector augmented-wave + core cor, Zval =  3.0
     Generated using "atomic" code by A. Dal Corso  v.5.1
     Shape of augmentation charge: PSQ
     Using radial grid of 1135 points,  4 beta functions with: 
                l(1) =   0
                l(2) =   0
                l(3) =   1
                l(4) =   1
     Q(r) pseudized with 0 coefficients 


     PseudoPot. # 3 for Al read from file:
     /home/ben/espresso/pp/Al.pbe-nl-kjpaw_psl.1.0.0.UPF
     MD5 check sum: 339dbea23cf3ab9a065ad45c0f9085d7
     Pseudo is Projector augmented-wave + core cor, Zval =  3.0
     Generated using "atomic" code by A. Dal Corso  v.5.1
     Shape of augmentation charge: PSQ
     Using radial grid of 1135 points,  4 beta functions with: 
                l(1) =   0
                l(2) =   0
                l(3) =   1
                l(4) =   1
     Q(r) pseudized with 0 coefficients 


     PseudoPot. # 4 for Al read from file:
     /home/ben/espresso/pp/Al.pbe-nl-kjpaw_psl.1.0.0.UPF
     MD5 check sum: 339dbea23cf3ab9a065ad45c0f9085d7
     Pseudo is Projector augmented-wave + core cor, Zval =  3.0
     Generated using "atomic" code by A. Dal Corso  v.5.1
     Shape of augmentation charge: PSQ
     Using radial grid of 1135 points,  4 beta functions with: 
                l(1) =   0
                l(2) =   0
                l(3) =   1
                l(4) =   1
     Q(r) pseudized with 0 coefficients 


     atomic species   valence    mass     pseudopotential
        Al1            3.00    26.98200     Al( 1.00)
        Al2            3.00    26.98200     Al( 1.00)
        Al3            3.00    26.98200     Al( 1.00)
        Al4            3.00    26.98200     Al( 1.00)

      8 Sym. Ops., with inversion, found



   Cartesian axes

     site n.     atom                  positions (alat units)
         1           Al1 tau(   1) = (   0.0000000   0.0000000   0.0000000  )
         2           Al2 tau(   2) = (   0.5000000   0.5000000   0.0000000  )
         3           Al3 tau(   3) = (   0.5000000   0.0000000   0.5000000  )
         4           Al4 tau(   4) = (   0.0000000   0.5000000   0.5000000  )

     number of k points=   125  Marzari-Vanderbilt smearing, width (Ry)=  0.0200

     Number of k-points >= 100: set verbosity='high' to print them.

     Dense  grid:    21247 G-vectors     FFT dimensions: (  36,  36,  36)

     Smooth grid:    12533 G-vectors     FFT dimensions: (  30,  30,  30)

     Estimated max dynamical RAM per process >      11.66Mb

     Estimated total allocated dynamical RAM >      46.62Mb

     Initial potential from superposition of free atoms

     starting charge   11.99084, renormalised to   12.00000
     Starting wfc are   16 randomized atomic wfcs
     Checking if some PAW data can be deallocated... 

     total cpu time spent up to now is        7.5 secs

     per-process dynamical memory:    21.2 Mb

     Self-consistent Calculation

     iteration #  1     ecut=    35.00 Ry     beta=0.30
     Davidson diagonalization with overlap
     ethr =  1.00E-02,  avg # of iterations =  3.2

     Threshold (ethr) on eigenvalues was too large:
     Diagonalizing with lowered threshold

     Davidson diagonalization with overlap
     ethr =  1.95E-04,  avg # of iterations =  3.9

     total cpu time spent up to now is       20.8 secs

     total energy              =    -158.01528553 Ry
     Harris-Foulkes estimate   =    -158.01732471 Ry
     estimated scf accuracy    <       0.02266110 Ry

     iteration #  2     ecut=    35.00 Ry     beta=0.30
     Davidson diagonalization with overlap
     ethr =  1.89E-04,  avg # of iterations =  1.1

     total cpu time spent up to now is       23.5 secs

     total energy              =    -158.01104804 Ry
     Harris-Foulkes estimate   =    -158.01539704 Ry
     estimated scf accuracy    <       0.01411618 Ry

     iteration #  3     ecut=    35.00 Ry     beta=0.30
     Davidson diagonalization with overlap
     ethr =  1.18E-04,  avg # of iterations =  1.0

     total cpu time spent up to now is       26.2 secs

     total energy              =    -158.01131328 Ry
     Harris-Foulkes estimate   =    -158.01130068 Ry
     estimated scf accuracy    <       0.00003599 Ry

     iteration #  4     ecut=    35.00 Ry     beta=0.30
     Davidson diagonalization with overlap
     ethr =  3.00E-07,  avg # of iterations =  3.8

     total cpu time spent up to now is       37.7 secs

     total energy              =    -158.01138968 Ry
     Harris-Foulkes estimate   =    -158.01137297 Ry
     estimated scf accuracy    <       0.00001737 Ry

     iteration #  5     ecut=    35.00 Ry     beta=0.30
     Davidson diagonalization with overlap
     ethr =  1.45E-07,  avg # of iterations =  1.0

     total cpu time spent up to now is       43.7 secs

     total energy              =    -158.01138780 Ry
     Harris-Foulkes estimate   =    -158.01139056 Ry
     estimated scf accuracy    <       0.00000619 Ry

     iteration #  6     ecut=    35.00 Ry     beta=0.30
     Davidson diagonalization with overlap
     ethr =  5.16E-08,  avg # of iterations =  2.0

     total cpu time spent up to now is       46.7 secs

     End of self-consistent calculation

     Number of k-points >= 100: set verbosity='high' to print the bands.

     the Fermi energy is     7.9926 ev

!    total energy              =    -158.01138849 Ry
     Harris-Foulkes estimate   =    -158.01138866 Ry
     estimated scf accuracy    <       0.00000006 Ry

     total all-electron energy =     -1942.582516 Ry

     The total energy is the sum of the following terms:

     one-electron contribution =      12.67565145 Ry
     hartree contribution      =       0.02434595 Ry
     xc contribution           =     -10.36851426 Ry
     ewald contribution        =     -21.63237678 Ry
     one-center paw contrib.   =    -138.70993381 Ry
     smearing contrib. (-TS)   =      -0.00056103 Ry

     convergence has been achieved in   6 iterations

     Forces acting on atoms (Ry/au):

     atom    1 type  1   force =     0.00000000    0.00000000    0.00000000
     atom    2 type  2   force =     0.00000000    0.00000000    0.00000000
     atom    3 type  3   force =     0.00000000    0.00000000    0.00000000
     atom    4 type  4   force =     0.00000000    0.00000000    0.00000000

     Total force =     0.000000     Total SCF correction =     0.000000


     entering subroutine stress ...

          total   stress  (Ry/bohr**3)                   (kbar)     P=   -0.43
  -0.00000292   0.00000000   0.00000000         -0.43      0.00      0.00
   0.00000000  -0.00000292   0.00000000          0.00     -0.43      0.00
   0.00000000   0.00000000  -0.00000292          0.00      0.00     -0.43


     Writing output data file template.save

     init_run     :      5.93s CPU      6.42s WALL (       1 calls)
     electrons    :     37.68s CPU     39.21s WALL (       1 calls)
     forces       :      0.26s CPU      0.25s WALL (       1 calls)
     stress       :      0.80s CPU      0.81s WALL (       1 calls)

     Called by init_run:
     wfcinit      :      5.25s CPU      5.70s WALL (       1 calls)
     potinit      :      0.23s CPU      0.25s WALL (       1 calls)

     Called by electrons:
     c_bands      :     32.30s CPU     33.68s WALL (       7 calls)
     sum_band     :      4.58s CPU      4.71s WALL (       7 calls)
     v_of_rho     :      0.11s CPU      0.11s WALL (       7 calls)
     newd         :      0.15s CPU      0.17s WALL (       7 calls)
     PAW_pot      :      0.74s CPU      0.77s WALL (       7 calls)
     mix_rho      :      0.01s CPU      0.01s WALL (       7 calls)

     Called by c_bands:
     init_us_2    :      0.71s CPU      0.72s WALL (    2125 calls)
     cegterg      :     31.47s CPU     32.78s WALL (     875 calls)

     Called by sum_band:
     sum_band:bec :      0.02s CPU      0.01s WALL (     875 calls)
     addusdens    :      0.15s CPU      0.16s WALL (       7 calls)

     Called by *egterg:
     h_psi        :     32.09s CPU     33.68s WALL (    2995 calls)
     s_psi        :      0.68s CPU      0.59s WALL (    2995 calls)
     g_psi        :      0.06s CPU      0.08s WALL (    1995 calls)
     cdiaghg      :      1.07s CPU      1.25s WALL (    2745 calls)

     Called by h_psi:
     h_psi:pot    :     32.01s CPU     33.60s WALL (    2995 calls)
     h_psi:calbec :      0.97s CPU      0.90s WALL (    2995 calls)
     vloc_psi     :     30.39s CPU     32.05s WALL (    2995 calls)
     add_vuspsi   :      0.63s CPU      0.64s WALL (    2995 calls)

     General routines
     calbec       :      1.35s CPU      1.26s WALL (    4495 calls)
     fft          :      0.12s CPU      0.13s WALL (     137 calls)
     ffts         :      0.02s CPU      0.01s WALL (      14 calls)
     fftw         :     32.90s CPU     34.53s WALL (   57462 calls)
     interpolate  :      0.03s CPU      0.03s WALL (      14 calls)
     davcio       :      0.00s CPU      0.01s WALL (     125 calls)

     Parallel routines
     fft_scatter  :      7.48s CPU      8.10s WALL (   57613 calls)

     PWSCF        :    45.90s CPU        48.07s WALL


   This run was terminated on:  10:41:48  30May2017            

=------------------------------------------------------------------------------=
   JOB DONE.
=------------------------------------------------------------------------------=
