
     Program PWSCF v.6.0 (svn rev. 13079) starts on 30May2017 at 10:34:38 

     This program is part of the open-source Quantum ESPRESSO suite
     for quantum simulation of materials; please cite
         "P. Giannozzi et al., J. Phys.:Condens. Matter 21 395502 (2009);
          URL http://www.quantum-espresso.org", 
     in publications or presentations arising from this work. More details at
     http://www.quantum-espresso.org/quote

     Parallel version (MPI), running on     4 processors
     R & G space division:  proc/nbgrp/npool/nimage =       4
     Waiting for input...
     Reading input from standard input

     Current dimensions of program PWSCF are:
     Max number of different atomic species (ntypx) = 10
     Max number of k-points (npk) =  40000
     Max angular momentum in pseudopotentials (lmaxx) =  3
               file Al.pbe-nl-kjpaw_psl.1.0.0.UPF: wavefunction(s)  3S 3P renormalized
               file Al.pbe-nl-kjpaw_psl.1.0.0.UPF: wavefunction(s)  3S 3P renormalized
               file Al.pbe-nl-kjpaw_psl.1.0.0.UPF: wavefunction(s)  3S 3P renormalized
               file Al.pbe-nl-kjpaw_psl.1.0.0.UPF: wavefunction(s)  3S 3P renormalized

     Subspace diagonalization in iterative solution of the eigenvalue problem:
     a serial algorithm will be used


     Parallelization info
     --------------------
     sticks:   dense  smooth     PW     G-vecs:    dense   smooth      PW
     Min         233     164     48                 5311     3132     524
     Max         234     165     49                 5313     3135     527
     Sum         933     657    193                21247    12533    2103



     bravais-lattice index     =            0
     lattice parameter (alat)  =       7.6300  a.u.
     unit-cell volume          =     444.1949 (a.u.)^3
     number of atoms/cell      =            4
     number of atomic types    =            4
     number of electrons       =        12.00
     number of Kohn-Sham states=           10
     kinetic-energy cutoff     =      35.0000  Ry
     charge density cutoff     =     200.0000  Ry
     convergence threshold     =      1.0E-06
     mixing beta               =       0.3000
     number of iterations used =           10  TF        mixing
     Exchange-correlation      =  SLA  PW   PBX  PBC ( 1  4  3  4 0 0)
     nstep                     =           40


     celldm(1)=   7.630000  celldm(2)=   0.000000  celldm(3)=   0.000000
     celldm(4)=   0.000000  celldm(5)=   0.000000  celldm(6)=   0.000000

     crystal axes: (cart. coord. in units of alat)
               a(1) = (   1.000000   0.000000   0.000000 )  
               a(2) = (   0.000000   1.000000   0.000000 )  
               a(3) = (   0.000000   0.000000   1.000000 )  

     reciprocal axes: (cart. coord. in units 2 pi/alat)
               b(1) = (  1.000000  0.000000  0.000000 )  
               b(2) = (  0.000000  1.000000  0.000000 )  
               b(3) = (  0.000000  0.000000  1.000000 )  


     PseudoPot. # 1 for Al read from file:
     /home/ben/espresso/pp/Al.pbe-nl-kjpaw_psl.1.0.0.UPF
     MD5 check sum: 339dbea23cf3ab9a065ad45c0f9085d7
     Pseudo is Projector augmented-wave + core cor, Zval =  3.0
     Generated using "atomic" code by A. Dal Corso  v.5.1
     Shape of augmentation charge: PSQ
     Using radial grid of 1135 points,  4 beta functions with: 
                l(1) =   0
                l(2) =   0
                l(3) =   1
                l(4) =   1
     Q(r) pseudized with 0 coefficients 


     PseudoPot. # 2 for Al read from file:
     /home/ben/espresso/pp/Al.pbe-nl-kjpaw_psl.1.0.0.UPF
     MD5 check sum: 339dbea23cf3ab9a065ad45c0f9085d7
     Pseudo is Projector augmented-wave + core cor, Zval =  3.0
     Generated using "atomic" code by A. Dal Corso  v.5.1
     Shape of augmentation charge: PSQ
     Using radial grid of 1135 points,  4 beta functions with: 
                l(1) =   0
                l(2) =   0
                l(3) =   1
                l(4) =   1
     Q(r) pseudized with 0 coefficients 


     PseudoPot. # 3 for Al read from file:
     /home/ben/espresso/pp/Al.pbe-nl-kjpaw_psl.1.0.0.UPF
     MD5 check sum: 339dbea23cf3ab9a065ad45c0f9085d7
     Pseudo is Projector augmented-wave + core cor, Zval =  3.0
     Generated using "atomic" code by A. Dal Corso  v.5.1
     Shape of augmentation charge: PSQ
     Using radial grid of 1135 points,  4 beta functions with: 
                l(1) =   0
                l(2) =   0
                l(3) =   1
                l(4) =   1
     Q(r) pseudized with 0 coefficients 


     PseudoPot. # 4 for Al read from file:
     /home/ben/espresso/pp/Al.pbe-nl-kjpaw_psl.1.0.0.UPF
     MD5 check sum: 339dbea23cf3ab9a065ad45c0f9085d7
     Pseudo is Projector augmented-wave + core cor, Zval =  3.0
     Generated using "atomic" code by A. Dal Corso  v.5.1
     Shape of augmentation charge: PSQ
     Using radial grid of 1135 points,  4 beta functions with: 
                l(1) =   0
                l(2) =   0
                l(3) =   1
                l(4) =   1
     Q(r) pseudized with 0 coefficients 


     atomic species   valence    mass     pseudopotential
        Al1            3.00    26.98200     Al( 1.00)
        Al2            3.00    26.98200     Al( 1.00)
        Al3            3.00    26.98200     Al( 1.00)
        Al4            3.00    26.98200     Al( 1.00)

      8 Sym. Ops., with inversion, found



   Cartesian axes

     site n.     atom                  positions (alat units)
         1           Al1 tau(   1) = (   0.0000000   0.0000000   0.0000000  )
         2           Al2 tau(   2) = (   0.5000000   0.5000000   0.0000000  )
         3           Al3 tau(   3) = (   0.5000000   0.0000000   0.5000000  )
         4           Al4 tau(   4) = (   0.0000000   0.5000000   0.5000000  )

     number of k points=   125  Marzari-Vanderbilt smearing, width (Ry)=  0.0200

     Number of k-points >= 100: set verbosity='high' to print them.

     Dense  grid:    21247 G-vectors     FFT dimensions: (  36,  36,  36)

     Smooth grid:    12533 G-vectors     FFT dimensions: (  30,  30,  30)

     Estimated max dynamical RAM per process >      11.66Mb

     Estimated total allocated dynamical RAM >      46.62Mb

     Initial potential from superposition of free atoms

     starting charge   11.99084, renormalised to   12.00000
     Starting wfc are   16 randomized atomic wfcs
     Checking if some PAW data can be deallocated... 

     total cpu time spent up to now is        5.4 secs

     per-process dynamical memory:    23.0 Mb

     Self-consistent Calculation

     iteration #  1     ecut=    35.00 Ry     beta=0.30
     Davidson diagonalization with overlap
     ethr =  1.00E-02,  avg # of iterations =  3.2

     Threshold (ethr) on eigenvalues was too large:
     Diagonalizing with lowered threshold

     Davidson diagonalization with overlap
     ethr =  1.95E-04,  avg # of iterations =  3.9

     total cpu time spent up to now is       12.6 secs

     total energy              =    -158.01528553 Ry
     Harris-Foulkes estimate   =    -158.01732471 Ry
     estimated scf accuracy    <       0.02266110 Ry

     iteration #  2     ecut=    35.00 Ry     beta=0.30
     Davidson diagonalization with overlap
     ethr =  1.89E-04,  avg # of iterations =  1.1

     total cpu time spent up to now is       15.7 secs

     total energy              =    -158.01104804 Ry
     Harris-Foulkes estimate   =    -158.01539704 Ry
     estimated scf accuracy    <       0.01411618 Ry

     iteration #  3     ecut=    35.00 Ry     beta=0.30
     Davidson diagonalization with overlap
     ethr =  1.18E-04,  avg # of iterations =  1.0

     total cpu time spent up to now is       24.3 secs

     total energy              =    -158.01131328 Ry
     Harris-Foulkes estimate   =    -158.01130068 Ry
     estimated scf accuracy    <       0.00003599 Ry

     iteration #  4     ecut=    35.00 Ry     beta=0.30
     Davidson diagonalization with overlap
     ethr =  3.00E-07,  avg # of iterations =  3.8

     total cpu time spent up to now is       31.4 secs

     total energy              =    -158.01138968 Ry
     Harris-Foulkes estimate   =    -158.01137297 Ry
     estimated scf accuracy    <       0.00001737 Ry

     iteration #  5     ecut=    35.00 Ry     beta=0.30
     Davidson diagonalization with overlap
     ethr =  1.45E-07,  avg # of iterations =  1.0

     total cpu time spent up to now is       33.8 secs

     total energy              =    -158.01138780 Ry
     Harris-Foulkes estimate   =    -158.01139056 Ry
     estimated scf accuracy    <       0.00000619 Ry

     iteration #  6     ecut=    35.00 Ry     beta=0.30
     Davidson diagonalization with overlap
     ethr =  5.16E-08,  avg # of iterations =  2.0

     total cpu time spent up to now is       36.6 secs

     End of self-consistent calculation

     Number of k-points >= 100: set verbosity='high' to print the bands.

     the Fermi energy is     7.9926 ev

!    total energy              =    -158.01138849 Ry
     Harris-Foulkes estimate   =    -158.01138866 Ry
     estimated scf accuracy    <       0.00000006 Ry

     total all-electron energy =     -1942.582516 Ry

     The total energy is the sum of the following terms:

     one-electron contribution =      12.67565145 Ry
     hartree contribution      =       0.02434595 Ry
     xc contribution           =     -10.36851426 Ry
     ewald contribution        =     -21.63237678 Ry
     one-center paw contrib.   =    -138.70993381 Ry
     smearing contrib. (-TS)   =      -0.00056103 Ry

     convergence has been achieved in   6 iterations

     Forces acting on atoms (Ry/au):

     atom    1 type  1   force =     0.00000000    0.00000000    0.00000000
     atom    2 type  2   force =     0.00000000    0.00000000    0.00000000
     atom    3 type  3   force =     0.00000000    0.00000000    0.00000000
     atom    4 type  4   force =     0.00000000    0.00000000    0.00000000

     Total force =     0.000000     Total SCF correction =     0.000000


     entering subroutine stress ...

          total   stress  (Ry/bohr**3)                   (kbar)     P=   -0.43
  -0.00000292   0.00000000   0.00000000         -0.43      0.00      0.00
   0.00000000  -0.00000292   0.00000000          0.00     -0.43      0.00
   0.00000000   0.00000000  -0.00000292          0.00      0.00     -0.43


     BFGS Geometry Optimization

     bfgs converged in   1 scf cycles and   0 bfgs steps
     (criteria: energy <  1.0E-04, force <  1.0E-03, cell <  5.0E-01)

     End of BFGS Geometry Optimization

     Final enthalpy =    -158.0113884866 Ry
Begin final coordinates
     new unit-cell volume =    444.19495 a.u.^3 (    65.82290 Ang^3 )

CELL_PARAMETERS (alat=  7.63000000)
   1.000000000   0.000000000   0.000000000
   0.000000000   1.000000000   0.000000000
   0.000000000   0.000000000   1.000000000

ATOMIC_POSITIONS (crystal)
Al1      0.000000000   0.000000000   0.000000000
Al2      0.500000000   0.500000000   0.000000000
Al3      0.500000000   0.000000000   0.500000000
Al4      0.000000000   0.500000000   0.500000000
End final coordinates



     A final scf calculation at the relaxed structure.
     The G-vectors are recalculated for the final unit cell
     Results may differ from those at the preceding step.

   Info: using nr1, nr2, nr3 values from input

   Info: using nr1, nr2, nr3 values from input

     Parallelization info
     --------------------
     sticks:   dense  smooth     PW     G-vecs:    dense   smooth      PW
     Min         233     164     48                 5311     3132     524
     Max         234     165     49                 5313     3135     527
     Sum         933     657    193                21247    12533    2103



     bravais-lattice index     =            0
     lattice parameter (alat)  =       7.6300  a.u.
     unit-cell volume          =     444.1949 (a.u.)^3
     number of atoms/cell      =            4
     number of atomic types    =            4
     number of electrons       =        12.00
     number of Kohn-Sham states=           10
     kinetic-energy cutoff     =      35.0000  Ry
     charge density cutoff     =     200.0000  Ry
     convergence threshold     =      1.0E-06
     mixing beta               =       0.3000
     number of iterations used =           10  TF        mixing
     Exchange-correlation      =  SLA  PW   PBX  PBC ( 1  4  3  4 0 0)

     celldm(1)=   7.630000  celldm(2)=   0.000000  celldm(3)=   0.000000
     celldm(4)=   0.000000  celldm(5)=   0.000000  celldm(6)=   0.000000

     crystal axes: (cart. coord. in units of alat)
               a(1) = (   1.000000   0.000000   0.000000 )  
               a(2) = (   0.000000   1.000000   0.000000 )  
               a(3) = (   0.000000   0.000000   1.000000 )  

     reciprocal axes: (cart. coord. in units 2 pi/alat)
               b(1) = (  1.000000  0.000000  0.000000 )  
               b(2) = (  0.000000  1.000000  0.000000 )  
               b(3) = (  0.000000  0.000000  1.000000 )  


     PseudoPot. # 1 for Al read from file:
     /home/ben/espresso/pp/Al.pbe-nl-kjpaw_psl.1.0.0.UPF
     MD5 check sum: 339dbea23cf3ab9a065ad45c0f9085d7
     Pseudo is Projector augmented-wave + core cor, Zval =  3.0
     Generated using "atomic" code by A. Dal Corso  v.5.1
     Shape of augmentation charge: PSQ
     Using radial grid of 1135 points,  4 beta functions with: 
                l(1) =   0
                l(2) =   0
                l(3) =   1
                l(4) =   1
     Q(r) pseudized with 0 coefficients 


     PseudoPot. # 2 for Al read from file:
     /home/ben/espresso/pp/Al.pbe-nl-kjpaw_psl.1.0.0.UPF
     MD5 check sum: 339dbea23cf3ab9a065ad45c0f9085d7
     Pseudo is Projector augmented-wave + core cor, Zval =  3.0
     Generated using "atomic" code by A. Dal Corso  v.5.1
     Shape of augmentation charge: PSQ
     Using radial grid of 1135 points,  4 beta functions with: 
                l(1) =   0
                l(2) =   0
                l(3) =   1
                l(4) =   1
     Q(r) pseudized with 0 coefficients 


     PseudoPot. # 3 for Al read from file:
     /home/ben/espresso/pp/Al.pbe-nl-kjpaw_psl.1.0.0.UPF
     MD5 check sum: 339dbea23cf3ab9a065ad45c0f9085d7
     Pseudo is Projector augmented-wave + core cor, Zval =  3.0
     Generated using "atomic" code by A. Dal Corso  v.5.1
     Shape of augmentation charge: PSQ
     Using radial grid of 1135 points,  4 beta functions with: 
                l(1) =   0
                l(2) =   0
                l(3) =   1
                l(4) =   1
     Q(r) pseudized with 0 coefficients 


     PseudoPot. # 4 for Al read from file:
     /home/ben/espresso/pp/Al.pbe-nl-kjpaw_psl.1.0.0.UPF
     MD5 check sum: 339dbea23cf3ab9a065ad45c0f9085d7
     Pseudo is Projector augmented-wave + core cor, Zval =  3.0
     Generated using "atomic" code by A. Dal Corso  v.5.1
     Shape of augmentation charge: PSQ
     Using radial grid of 1135 points,  4 beta functions with: 
                l(1) =   0
                l(2) =   0
                l(3) =   1
                l(4) =   1
     Q(r) pseudized with 0 coefficients 


     atomic species   valence    mass     pseudopotential
        Al1            3.00    26.98200     Al( 1.00)
        Al2            3.00    26.98200     Al( 1.00)
        Al3            3.00    26.98200     Al( 1.00)
        Al4            3.00    26.98200     Al( 1.00)

      8 Sym. Ops., with inversion, found



   Cartesian axes

     site n.     atom                  positions (alat units)
         1           Al1 tau(   1) = (   0.0000000   0.0000000   0.0000000  )
         2           Al2 tau(   2) = (   0.5000000   0.5000000   0.0000000  )
         3           Al3 tau(   3) = (   0.5000000   0.0000000   0.5000000  )
         4           Al4 tau(   4) = (   0.0000000   0.5000000   0.5000000  )

     number of k points=   125  Marzari-Vanderbilt smearing, width (Ry)=  0.0200

     Number of k-points >= 100: set verbosity='high' to print them.

     Dense  grid:    21247 G-vectors     FFT dimensions: (  36,  36,  36)

     Smooth grid:    12533 G-vectors     FFT dimensions: (  30,  30,  30)

     Estimated max dynamical RAM per process >      11.66Mb

     Estimated total allocated dynamical RAM >      46.62Mb

     Initial potential from superposition of free atoms

     starting charge   11.99084, renormalised to   12.00000
     Starting wfc are   16 randomized atomic wfcs
     Checking if some PAW data can be deallocated... 

     Writing output data file template.save

     total cpu time spent up to now is       53.5 secs

     per-process dynamical memory:    29.8 Mb

     Self-consistent Calculation

     iteration #  1     ecut=    35.00 Ry     beta=0.30
     Davidson diagonalization with overlap
     c_bands:  1 eigenvalues not converged
     c_bands:  1 eigenvalues not converged
     c_bands:  1 eigenvalues not converged
     c_bands:  2 eigenvalues not converged
     ethr =  1.00E-06,  avg # of iterations = 13.2

     total cpu time spent up to now is       64.2 secs

     total energy              =    -158.01540442 Ry
     Harris-Foulkes estimate   =    -158.01740616 Ry
     estimated scf accuracy    <       0.02265223 Ry

     iteration #  2     ecut=    35.00 Ry     beta=0.30
     Davidson diagonalization with overlap
     ethr =  1.89E-04,  avg # of iterations =  1.0

     total cpu time spent up to now is       66.6 secs

     total energy              =    -158.01101969 Ry
     Harris-Foulkes estimate   =    -158.01541887 Ry
     estimated scf accuracy    <       0.01420160 Ry

     iteration #  3     ecut=    35.00 Ry     beta=0.30
     Davidson diagonalization with overlap
     ethr =  1.18E-04,  avg # of iterations =  1.0

     total cpu time spent up to now is       70.9 secs

     total energy              =    -158.01132024 Ry
     Harris-Foulkes estimate   =    -158.01126634 Ry
     estimated scf accuracy    <       0.00003706 Ry

     iteration #  4     ecut=    35.00 Ry     beta=0.30
     Davidson diagonalization with overlap
     ethr =  3.09E-07,  avg # of iterations =  3.6

     total cpu time spent up to now is       83.2 secs

     End of self-consistent calculation

     Number of k-points >= 100: set verbosity='high' to print the bands.

     the Fermi energy is     7.9921 ev

!    total energy              =    -158.01138838 Ry
     Harris-Foulkes estimate   =    -158.01138895 Ry
     estimated scf accuracy    <       0.00000074 Ry

     total all-electron energy =     -1942.582516 Ry

     The total energy is the sum of the following terms:

     one-electron contribution =      12.67583896 Ry
     hartree contribution      =       0.02435058 Ry
     xc contribution           =     -10.36859995 Ry
     ewald contribution        =     -21.63237678 Ry
     one-center paw contrib.   =    -138.71003990 Ry
     smearing contrib. (-TS)   =      -0.00056130 Ry

     convergence has been achieved in   4 iterations

     Forces acting on atoms (Ry/au):

     atom    1 type  1   force =     0.00000000    0.00000000    0.00000000
     atom    2 type  2   force =     0.00000000    0.00000000    0.00000000
     atom    3 type  3   force =     0.00000000    0.00000000    0.00000000
     atom    4 type  4   force =     0.00000000    0.00000000    0.00000000

     Total force =     0.000000     Total SCF correction =     0.000000


     entering subroutine stress ...

          total   stress  (Ry/bohr**3)                   (kbar)     P=   -0.31
  -0.00000213   0.00000000   0.00000000         -0.31      0.00      0.00
   0.00000000  -0.00000213   0.00000000          0.00     -0.31      0.00
   0.00000000   0.00000000  -0.00000213          0.00      0.00     -0.31


     Writing output data file template.save

     init_run     :     12.66s CPU     13.43s WALL (       2 calls)
     electrons    :     58.94s CPU     60.87s WALL (       2 calls)
     forces       :      1.72s CPU      1.73s WALL (       2 calls)
     stress       :      5.90s CPU      5.95s WALL (       2 calls)

     Called by init_run:
     wfcinit      :      7.10s CPU      7.75s WALL (       2 calls)
     potinit      :      1.00s CPU      1.02s WALL (       2 calls)

     Called by electrons:
     c_bands      :     49.58s CPU     51.22s WALL (      11 calls)
     sum_band     :      7.90s CPU      8.14s WALL (      11 calls)
     v_of_rho     :      0.24s CPU      0.24s WALL (      12 calls)
     newd         :      0.24s CPU      0.25s WALL (      12 calls)
     PAW_pot      :      1.28s CPU      1.35s WALL (      12 calls)
     mix_rho      :      0.03s CPU      0.02s WALL (      11 calls)

     Called by c_bands:
     init_us_2    :      1.21s CPU      1.20s WALL (    3500 calls)
     cegterg      :     48.29s CPU     49.95s WALL (    1375 calls)

     Called by sum_band:
     sum_band:bec :      0.02s CPU      0.02s WALL (    1375 calls)
     addusdens    :      0.27s CPU      0.28s WALL (      11 calls)

     Called by *egterg:
     h_psi        :     48.10s CPU     50.06s WALL (    5967 calls)
     s_psi        :      0.90s CPU      0.88s WALL (    5967 calls)
     g_psi        :      0.13s CPU      0.12s WALL (    4342 calls)
     cdiaghg      :      1.96s CPU      2.04s WALL (    5592 calls)

     Called by h_psi:
     h_psi:pot    :     47.98s CPU     49.94s WALL (    5967 calls)
     h_psi:calbec :      1.30s CPU      1.35s WALL (    5967 calls)
     vloc_psi     :     45.71s CPU     47.60s WALL (    5967 calls)
     add_vuspsi   :      0.92s CPU      0.96s WALL (    5967 calls)

     General routines
     calbec       :      2.05s CPU      2.17s WALL (    8592 calls)
     fft          :      0.42s CPU      0.39s WALL (     238 calls)
     ffts         :      0.02s CPU      0.02s WALL (      23 calls)
     fftw         :     50.05s CPU     52.15s WALL (  104562 calls)
     interpolate  :      0.04s CPU      0.04s WALL (      23 calls)
     davcio       :      0.01s CPU      0.02s WALL (     250 calls)

     Parallel routines
     fft_scatter  :     10.65s CPU     11.31s WALL (  104823 calls)

     PWSCF        :  1m21.44s CPU     1m24.51s WALL


   This run was terminated on:  10:36: 3  30May2017            

=------------------------------------------------------------------------------=
   JOB DONE.
=------------------------------------------------------------------------------=
