
     Program PWSCF v.6.0 (svn rev. 13079) starts on  9Jun2017 at 13:38:57 

     This program is part of the open-source Quantum ESPRESSO suite
     for quantum simulation of materials; please cite
         "P. Giannozzi et al., J. Phys.:Condens. Matter 21 395502 (2009);
          URL http://www.quantum-espresso.org", 
     in publications or presentations arising from this work. More details at
     http://www.quantum-espresso.org/quote

     Parallel version (MPI), running on     4 processors
     R & G space division:  proc/nbgrp/npool/nimage =       4
     Waiting for input...
     Reading input from standard input
Warning: card &IONS ignored
Warning: card ION_DYNAMICS='BFGS', ignored
Warning: card / ignored
Warning: card &CELL ignored
Warning: card CELL_DYNAMICS='BFGS', ignored
Warning: card PRESS = 0.0, ignored
Warning: card CELL_FACTOR = 2.0, ignored
Warning: card / ignored

     Current dimensions of program PWSCF are:
     Max number of different atomic species (ntypx) = 10
     Max number of k-points (npk) =  40000
     Max angular momentum in pseudopotentials (lmaxx) =  3
               file Al.pbe-nl-kjpaw_psl.1.0.0.UPF: wavefunction(s)  3S 3P renormalized
               file Al.pbe-nl-kjpaw_psl.1.0.0.UPF: wavefunction(s)  3S 3P renormalized
               file Al.pbe-nl-kjpaw_psl.1.0.0.UPF: wavefunction(s)  3S 3P renormalized
               file Al.pbe-nl-kjpaw_psl.1.0.0.UPF: wavefunction(s)  3S 3P renormalized

     Subspace diagonalization in iterative solution of the eigenvalue problem:
     a serial algorithm will be used


     Parallelization info
     --------------------
     sticks:   dense  smooth     PW     G-vecs:    dense   smooth      PW
     Min         237     167     53                 5527     3258     575
     Max         238     169     54                 5532     3261     576
     Sum         949     673    213                22119    13037    2301



     bravais-lattice index     =            0
     lattice parameter (alat)  =       7.6205  a.u.
     unit-cell volume          =     462.7440 (a.u.)^3
     number of atoms/cell      =            4
     number of atomic types    =            4
     number of electrons       =        12.00
     number of Kohn-Sham states=           10
     kinetic-energy cutoff     =      35.0000  Ry
     charge density cutoff     =     200.0000  Ry
     convergence threshold     =      1.0E-06
     mixing beta               =       0.3000
     number of iterations used =           10  TF        mixing
     Exchange-correlation      =  SLA  PW   PBX  PBC ( 1  4  3  4 0 0)

     celldm(1)=   7.620455  celldm(2)=   0.000000  celldm(3)=   0.000000
     celldm(4)=   0.000000  celldm(5)=   0.000000  celldm(6)=   0.000000

     crystal axes: (cart. coord. in units of alat)
               a(1) = (   1.015000   0.000000   0.000000 )  
               a(2) = (   0.000000   1.015000   0.000000 )  
               a(3) = (   0.000000   0.000000   1.015000 )  

     reciprocal axes: (cart. coord. in units 2 pi/alat)
               b(1) = (  0.985222  0.000000  0.000000 )  
               b(2) = (  0.000000  0.985222  0.000000 )  
               b(3) = (  0.000000  0.000000  0.985222 )  


     PseudoPot. # 1 for Al read from file:
     /home/ben/espresso/pp/Al.pbe-nl-kjpaw_psl.1.0.0.UPF
     MD5 check sum: 339dbea23cf3ab9a065ad45c0f9085d7
     Pseudo is Projector augmented-wave + core cor, Zval =  3.0
     Generated using "atomic" code by A. Dal Corso  v.5.1
     Shape of augmentation charge: PSQ
     Using radial grid of 1135 points,  4 beta functions with: 
                l(1) =   0
                l(2) =   0
                l(3) =   1
                l(4) =   1
     Q(r) pseudized with 0 coefficients 


     PseudoPot. # 2 for Al read from file:
     /home/ben/espresso/pp/Al.pbe-nl-kjpaw_psl.1.0.0.UPF
     MD5 check sum: 339dbea23cf3ab9a065ad45c0f9085d7
     Pseudo is Projector augmented-wave + core cor, Zval =  3.0
     Generated using "atomic" code by A. Dal Corso  v.5.1
     Shape of augmentation charge: PSQ
     Using radial grid of 1135 points,  4 beta functions with: 
                l(1) =   0
                l(2) =   0
                l(3) =   1
                l(4) =   1
     Q(r) pseudized with 0 coefficients 


     PseudoPot. # 3 for Al read from file:
     /home/ben/espresso/pp/Al.pbe-nl-kjpaw_psl.1.0.0.UPF
     MD5 check sum: 339dbea23cf3ab9a065ad45c0f9085d7
     Pseudo is Projector augmented-wave + core cor, Zval =  3.0
     Generated using "atomic" code by A. Dal Corso  v.5.1
     Shape of augmentation charge: PSQ
     Using radial grid of 1135 points,  4 beta functions with: 
                l(1) =   0
                l(2) =   0
                l(3) =   1
                l(4) =   1
     Q(r) pseudized with 0 coefficients 


     PseudoPot. # 4 for Al read from file:
     /home/ben/espresso/pp/Al.pbe-nl-kjpaw_psl.1.0.0.UPF
     MD5 check sum: 339dbea23cf3ab9a065ad45c0f9085d7
     Pseudo is Projector augmented-wave + core cor, Zval =  3.0
     Generated using "atomic" code by A. Dal Corso  v.5.1
     Shape of augmentation charge: PSQ
     Using radial grid of 1135 points,  4 beta functions with: 
                l(1) =   0
                l(2) =   0
                l(3) =   1
                l(4) =   1
     Q(r) pseudized with 0 coefficients 


     atomic species   valence    mass     pseudopotential
        Al1            3.00    26.98200     Al( 1.00)
        Al2            3.00    26.98200     Al( 1.00)
        Al3            3.00    26.98200     Al( 1.00)
        Al4            3.00    26.98200     Al( 1.00)

      8 Sym. Ops., with inversion, found



   Cartesian axes

     site n.     atom                  positions (alat units)
         1           Al1 tau(   1) = (   0.0000000   0.0000000   0.0000000  )
         2           Al2 tau(   2) = (   0.5075000   0.5075000   0.0000000  )
         3           Al3 tau(   3) = (   0.5075000   0.0000000   0.5075000  )
         4           Al4 tau(   4) = (   0.0000000   0.5075000   0.5075000  )

     number of k points=    64  Marzari-Vanderbilt smearing, width (Ry)=  0.0200
                       cart. coord. in units 2pi/alat
        k(    1) = (   0.0703730   0.0703730   0.0703730), wk =   0.0466472
        k(    2) = (   0.0703730   0.0703730   0.2111189), wk =   0.0466472
        k(    3) = (   0.0703730   0.0703730   0.3518649), wk =   0.0466472
        k(    4) = (   0.0703730   0.0703730  -0.4926108), wk =   0.0233236
        k(    5) = (   0.0703730   0.2111189   0.2111189), wk =   0.0466472
        k(    6) = (   0.0703730   0.2111189   0.3518649), wk =   0.0466472
        k(    7) = (   0.0703730   0.2111189  -0.4926108), wk =   0.0233236
        k(    8) = (   0.0703730   0.3518649   0.3518649), wk =   0.0466472
        k(    9) = (   0.0703730   0.3518649  -0.4926108), wk =   0.0233236
        k(   10) = (   0.0703730  -0.4926108  -0.4926108), wk =   0.0116618
        k(   11) = (   0.2111189   0.2111189   0.2111189), wk =   0.0466472
        k(   12) = (   0.2111189   0.2111189   0.3518649), wk =   0.0466472
        k(   13) = (   0.2111189   0.2111189  -0.4926108), wk =   0.0233236
        k(   14) = (   0.2111189   0.3518649   0.3518649), wk =   0.0466472
        k(   15) = (   0.2111189   0.3518649  -0.4926108), wk =   0.0233236
        k(   16) = (   0.2111189  -0.4926108  -0.4926108), wk =   0.0116618
        k(   17) = (   0.3518649   0.3518649   0.3518649), wk =   0.0466472
        k(   18) = (   0.3518649   0.3518649  -0.4926108), wk =   0.0233236
        k(   19) = (   0.3518649  -0.4926108  -0.4926108), wk =   0.0116618
        k(   20) = (  -0.4926108  -0.4926108  -0.4926108), wk =   0.0058309
        k(   21) = (   0.2111189  -0.0703730   0.0703730), wk =   0.0466472
        k(   22) = (  -0.0703730   0.2111189   0.0703730), wk =   0.0466472
        k(   23) = (   0.3518649  -0.0703730   0.0703730), wk =   0.0466472
        k(   24) = (  -0.0703730   0.3518649   0.0703730), wk =   0.0466472
        k(   25) = (  -0.4926108  -0.0703730   0.0703730), wk =   0.0233236
        k(   26) = (  -0.0703730  -0.4926108   0.0703730), wk =   0.0233236
        k(   27) = (   0.2111189  -0.2111189   0.0703730), wk =   0.0466472
        k(   28) = (   0.2111189   0.0703730   0.2111189), wk =   0.0466472
        k(   29) = (   0.3518649  -0.2111189   0.0703730), wk =   0.0466472
        k(   30) = (  -0.0703730   0.3518649   0.2111189), wk =   0.0466472
        k(   31) = (   0.2111189   0.3518649   0.0703730), wk =   0.0466472
        k(   32) = (   0.3518649   0.0703730   0.2111189), wk =   0.0466472
        k(   33) = (   0.2111189   0.0703730  -0.3518649), wk =   0.0466472
        k(   34) = (  -0.4926108  -0.2111189   0.0703730), wk =   0.0233236
        k(   35) = (  -0.0703730  -0.4926108   0.2111189), wk =   0.0233236
        k(   36) = (   0.2111189  -0.4926108   0.0703730), wk =   0.0233236
        k(   37) = (  -0.4926108   0.0703730   0.2111189), wk =   0.0233236
        k(   38) = (   0.2111189   0.0703730   0.4926108), wk =   0.0233236
        k(   39) = (   0.3518649  -0.3518649   0.0703730), wk =   0.0466472
        k(   40) = (   0.3518649   0.0703730   0.3518649), wk =   0.0466472
        k(   41) = (  -0.4926108  -0.3518649   0.0703730), wk =   0.0233236
        k(   42) = (  -0.0703730  -0.4926108   0.3518649), wk =   0.0233236
        k(   43) = (   0.3518649  -0.4926108   0.0703730), wk =   0.0233236
        k(   44) = (  -0.4926108   0.0703730   0.3518649), wk =   0.0233236
        k(   45) = (   0.3518649   0.0703730   0.4926108), wk =   0.0233236
        k(   46) = (  -0.4926108   0.4926108   0.0703730), wk =   0.0116618
        k(   47) = (  -0.4926108   0.0703730  -0.4926108), wk =   0.0116618
        k(   48) = (   0.3518649  -0.2111189   0.2111189), wk =   0.0466472
        k(   49) = (  -0.2111189   0.3518649   0.2111189), wk =   0.0466472
        k(   50) = (  -0.4926108  -0.2111189   0.2111189), wk =   0.0233236
        k(   51) = (  -0.2111189  -0.4926108   0.2111189), wk =   0.0233236
        k(   52) = (   0.3518649  -0.3518649   0.2111189), wk =   0.0466472
        k(   53) = (   0.3518649   0.2111189   0.3518649), wk =   0.0466472
        k(   54) = (  -0.4926108  -0.3518649   0.2111189), wk =   0.0233236
        k(   55) = (  -0.2111189  -0.4926108   0.3518649), wk =   0.0233236
        k(   56) = (   0.3518649  -0.4926108   0.2111189), wk =   0.0233236
        k(   57) = (  -0.4926108   0.2111189   0.3518649), wk =   0.0233236
        k(   58) = (   0.3518649   0.2111189   0.4926108), wk =   0.0233236
        k(   59) = (  -0.4926108   0.4926108   0.2111189), wk =   0.0116618
        k(   60) = (  -0.4926108   0.2111189  -0.4926108), wk =   0.0116618
        k(   61) = (  -0.4926108  -0.3518649   0.3518649), wk =   0.0233236
        k(   62) = (  -0.3518649  -0.4926108   0.3518649), wk =   0.0233236
        k(   63) = (  -0.4926108   0.4926108   0.3518649), wk =   0.0116618
        k(   64) = (  -0.4926108   0.3518649  -0.4926108), wk =   0.0116618

     Dense  grid:    22119 G-vectors     FFT dimensions: (  36,  36,  36)

     Smooth grid:    13037 G-vectors     FFT dimensions: (  30,  30,  30)

     Estimated max dynamical RAM per process >       8.34Mb

     Estimated total allocated dynamical RAM >      33.36Mb

     Initial potential from superposition of free atoms

     starting charge   11.99084, renormalised to   12.00000
     Starting wfc are   16 randomized atomic wfcs
     Checking if some PAW data can be deallocated... 

     total cpu time spent up to now is        2.6 secs

     per-process dynamical memory:    17.3 Mb

     Self-consistent Calculation

     iteration #  1     ecut=    35.00 Ry     beta=0.30
     Davidson diagonalization with overlap
     ethr =  1.00E-02,  avg # of iterations =  3.2

     Threshold (ethr) on eigenvalues was too large:
     Diagonalizing with lowered threshold

     Davidson diagonalization with overlap
     ethr =  1.99E-04,  avg # of iterations =  3.1

     total cpu time spent up to now is        6.4 secs

     total energy              =    -158.00795011 Ry
     Harris-Foulkes estimate   =    -158.01002842 Ry
     estimated scf accuracy    <       0.02308471 Ry

     iteration #  2     ecut=    35.00 Ry     beta=0.30
     Davidson diagonalization with overlap
     ethr =  1.92E-04,  avg # of iterations =  1.0

     total cpu time spent up to now is       10.9 secs

     total energy              =    -158.00363491 Ry
     Harris-Foulkes estimate   =    -158.00809196 Ry
     estimated scf accuracy    <       0.01438317 Ry

     iteration #  3     ecut=    35.00 Ry     beta=0.30
     Davidson diagonalization with overlap
     ethr =  1.20E-04,  avg # of iterations =  1.0

     total cpu time spent up to now is       15.4 secs

     total energy              =    -158.00393716 Ry
     Harris-Foulkes estimate   =    -158.00393001 Ry
     estimated scf accuracy    <       0.00003615 Ry

     iteration #  4     ecut=    35.00 Ry     beta=0.30
     Davidson diagonalization with overlap
     ethr =  3.01E-07,  avg # of iterations =  4.1

     total cpu time spent up to now is       21.5 secs

     total energy              =    -158.00401205 Ry
     Harris-Foulkes estimate   =    -158.00399847 Ry
     estimated scf accuracy    <       0.00001822 Ry

     iteration #  5     ecut=    35.00 Ry     beta=0.30
     Davidson diagonalization with overlap
     ethr =  1.52E-07,  avg # of iterations =  1.0

     total cpu time spent up to now is       22.8 secs

     total energy              =    -158.00401012 Ry
     Harris-Foulkes estimate   =    -158.00401312 Ry
     estimated scf accuracy    <       0.00000684 Ry

     iteration #  6     ecut=    35.00 Ry     beta=0.30
     Davidson diagonalization with overlap
     ethr =  5.70E-08,  avg # of iterations =  2.0

     total cpu time spent up to now is       24.5 secs

     End of self-consistent calculation

          k = 0.0704 0.0704 0.0704 (  1626 PWs)   bands (ev):

    -3.2272   4.0682   4.0682   4.0682   6.7812   6.7813   6.7814  11.0512
    11.0513  11.0513

          k = 0.0704 0.0704 0.2111 (  1626 PWs)   bands (ev):

    -2.8671   2.0740   4.4077   4.4077   7.1204   7.1206   9.1293   9.1294
     9.4007  11.3853

          k = 0.0704 0.0704 0.3519 (  1621 PWs)   bands (ev):

    -2.1497   0.3331   5.0846   5.0847   7.4089   7.4090   7.8519   7.8519
    10.2161  10.2165

          k = 0.0704 0.0704-0.4926 (  1618 PWs)   bands (ev):

    -1.0803  -1.0798   6.0277   6.0281   6.1696   6.1701   8.6123   8.6125
     9.1095   9.1102

          k = 0.0704 0.2111 0.2111 (  1623 PWs)   bands (ev):

    -2.5080   2.4210   2.4211   4.7461   7.1314   7.5543   9.4103   9.4105
     9.7813   9.7814

          k = 0.0704 0.2111 0.3519 (  1621 PWs)   bands (ev):

    -1.7922   0.6847   3.1130   5.3767   5.5597   7.7836   8.1733  10.1167
    10.2587  10.6960

          k = 0.0704 0.2111-0.4926 (  1606 PWs)   bands (ev):

    -0.7254  -0.7249   4.1438   4.1443   6.4423   6.4428   9.1759   9.1763
    11.1164  11.1169

          k = 0.0704 0.3519 0.3519 (  1617 PWs)   bands (ev):

    -1.0799   1.3853   1.3854   3.8096   6.1061   8.4570   8.4572   8.8523
    10.7929  11.1685

          k = 0.0704 0.3519-0.4926 (  1628 PWs)   bands (ev):

    -0.0181  -0.0176   2.4300   2.4304   7.1157   7.1163   9.4613   9.4618
     9.8590   9.8594

          k = 0.0704-0.4926-0.4926 (  1624 PWs)   bands (ev):

     1.0365   1.0367   1.0370   1.0371   8.1237   8.1240   8.1243   8.1243
    10.8590  10.8593

          k = 0.2111 0.2111 0.2111 (  1622 PWs)   bands (ev):

    -2.1497   2.7673   2.7674   2.7674   7.5343   7.5345   7.5345  10.0909
    10.0910  10.0910

          k = 0.2111 0.2111 0.3519 (  1609 PWs)   bands (ev):

    -1.4357   1.0355   3.4572   3.4573   5.8584   5.8585   8.2122  10.5526
    10.7501  10.7502

          k = 0.2111 0.2111-0.4926 (  1614 PWs)   bands (ev):

    -0.3713  -0.3709   4.4064   4.4068   4.5767   4.5773   9.2199   9.2204
    11.9270  11.9280

          k = 0.2111 0.3519 0.3519 (  1617 PWs)   bands (ev):

    -0.7250   1.7346   1.7347   4.0735   4.2340   6.5380   6.5382   8.8974
    11.4182  13.5497

          k = 0.2111 0.3519-0.4926 (  1626 PWs)   bands (ev):

     0.3344   0.3349   2.7765   2.7770   5.1795   5.1800   7.5535   7.5540
    12.3940  12.3945

          k = 0.2111-0.4926-0.4926 (  1616 PWs)   bands (ev):

     1.3866   1.3869   1.3872   1.3873   6.2008   6.2011   6.2014   6.2015
    13.3677  13.3679

          k = 0.3519 0.3519 0.3519 (  1616 PWs)   bands (ev):

    -0.0176   2.4304   2.4305   2.4305   4.8475   4.8476   4.8477   7.2279
    14.3380  14.3381

          k = 0.3519 0.3519-0.4926 (  1612 PWs)   bands (ev):

     1.0370   1.0375   3.4054   3.4058   3.5376   3.5382   5.8718   5.8723
    15.3306  15.3314

          k = 0.3519-0.4926-0.4926 (  1616 PWs)   bands (ev):

     2.0844   2.0846   2.0849   2.0850   4.5062   4.5065   4.5068   4.5068
    16.1553  16.1559

          k =-0.4926-0.4926-0.4926 (  1640 PWs)   bands (ev):

     3.0705   3.0707   3.0708   3.0712   3.1845   3.1852   3.1853   3.1855
    18.5115  18.5118

          k = 0.2111-0.0704 0.0704 (  1626 PWs)   bands (ev):

    -2.8671   2.0740   4.4077   4.4077   7.1204   7.1206   9.1293   9.1294
     9.4007  11.3857

          k =-0.0704 0.2111 0.0704 (  1626 PWs)   bands (ev):

    -2.8671   2.0740   4.4077   4.4077   7.1205   7.1206   9.1293   9.1293
     9.4007  11.3853

          k = 0.3519-0.0704 0.0704 (  1621 PWs)   bands (ev):

    -2.1497   0.3331   5.0846   5.0847   7.4089   7.4090   7.8519   7.8519
    10.2162  10.2165

          k =-0.0704 0.3519 0.0704 (  1621 PWs)   bands (ev):

    -2.1497   0.3331   5.0846   5.0847   7.4089   7.4090   7.8519   7.8519
    10.2162  10.2164

          k =-0.4926-0.0704 0.0704 (  1618 PWs)   bands (ev):

    -1.0802  -1.0799   6.0277   6.0280   6.1696   6.1701   8.6123   8.6125
     9.1096   9.1101

          k =-0.0704-0.4926 0.0704 (  1618 PWs)   bands (ev):

    -1.0801  -1.0800   6.0278   6.0279   6.1698   6.1700   8.6124   8.6125
     9.1097   9.1100

          k = 0.2111-0.2111 0.0704 (  1623 PWs)   bands (ev):

    -2.5080   2.4210   2.4211   4.7461   7.1314   7.5542   9.4103   9.4105
     9.7812   9.7814

          k = 0.2111 0.0704 0.2111 (  1623 PWs)   bands (ev):

    -2.5080   2.4210   2.4211   4.7461   7.1314   7.5543   9.4104   9.4104
     9.7813   9.7814

          k = 0.3519-0.2111 0.0704 (  1621 PWs)   bands (ev):

    -1.7922   0.6847   3.1130   5.3767   5.5597   7.7836   8.1733  10.1167
    10.2587  10.6960

          k =-0.0704 0.3519 0.2111 (  1621 PWs)   bands (ev):

    -1.7922   0.6847   3.1130   5.3767   5.5597   7.7836   8.1733  10.1167
    10.2587  10.6960

          k = 0.2111 0.3519 0.0704 (  1621 PWs)   bands (ev):

    -1.7922   0.6847   3.1130   5.3767   5.5597   7.7836   8.1733  10.1167
    10.2587  10.6960

          k = 0.3519 0.0704 0.2111 (  1621 PWs)   bands (ev):

    -1.7922   0.6847   3.1130   5.3767   5.5597   7.7836   8.1733  10.1167
    10.2587  10.6960

          k = 0.2111 0.0704-0.3519 (  1621 PWs)   bands (ev):

    -1.7922   0.6847   3.1130   5.3767   5.5597   7.7836   8.1733  10.1167
    10.2587  10.6960

          k =-0.4926-0.2111 0.0704 (  1606 PWs)   bands (ev):

    -0.7253  -0.7250   4.1439   4.1442   6.4424   6.4428   9.1760   9.1763
    11.1164  11.1168

          k =-0.0704-0.4926 0.2111 (  1606 PWs)   bands (ev):

    -0.7253  -0.7251   4.1440   4.1441   6.4425   6.4427   9.1760   9.1762
    11.1167  11.1170

          k = 0.2111-0.4926 0.0704 (  1606 PWs)   bands (ev):

    -0.7253  -0.7251   4.1440   4.1441   6.4425   6.4427   9.1760   9.1762
    11.1166  11.1177

          k =-0.4926 0.0704 0.2111 (  1606 PWs)   bands (ev):

    -0.7253  -0.7250   4.1439   4.1442   6.4424   6.4428   9.1760   9.1763
    11.1176  11.1183

          k = 0.2111 0.0704 0.4926 (  1606 PWs)   bands (ev):

    -0.7254  -0.7249   4.1438   4.1443   6.4423   6.4428   9.1759   9.1763
    11.1168  11.1173

          k = 0.3519-0.3519 0.0704 (  1617 PWs)   bands (ev):

    -1.0799   1.3853   1.3854   3.8096   6.1061   8.4570   8.4572   8.8523
    10.7929  11.1685

          k = 0.3519 0.0704 0.3519 (  1617 PWs)   bands (ev):

    -1.0799   1.3854   1.3854   3.8096   6.1061   8.4570   8.4571   8.8523
    10.7929  11.1685

          k =-0.4926-0.3519 0.0704 (  1628 PWs)   bands (ev):

    -0.0180  -0.0177   2.4300   2.4304   7.1158   7.1162   9.4613   9.4617
     9.8590   9.8593

          k =-0.0704-0.4926 0.3519 (  1628 PWs)   bands (ev):

    -0.0179  -0.0178   2.4301   2.4303   7.1159   7.1161   9.4614   9.4616
     9.8591   9.8593

          k = 0.3519-0.4926 0.0704 (  1628 PWs)   bands (ev):

    -0.0179  -0.0178   2.4301   2.4303   7.1159   7.1161   9.4614   9.4616
     9.8591   9.8593

          k =-0.4926 0.0704 0.3519 (  1628 PWs)   bands (ev):

    -0.0180  -0.0177   2.4300   2.4304   7.1158   7.1162   9.4613   9.4617
     9.8590   9.8593

          k = 0.3519 0.0704 0.4926 (  1628 PWs)   bands (ev):

    -0.0181  -0.0176   2.4300   2.4304   7.1158   7.1163   9.4613   9.4618
     9.8590   9.8594

          k =-0.4926 0.4926 0.0704 (  1624 PWs)   bands (ev):

     1.0365   1.0368   1.0370   1.0371   8.1237   8.1241   8.1242   8.1243
    10.8591  10.8593

          k =-0.4926 0.0704-0.4926 (  1624 PWs)   bands (ev):

     1.0364   1.0368   1.0369   1.0372   8.1236   8.1241   8.1242   8.1245
    10.8588  10.8592

          k = 0.3519-0.2111 0.2111 (  1609 PWs)   bands (ev):

    -1.4357   1.0355   3.4573   3.4573   5.8584   5.8585   8.2122  10.5526
    10.7501  10.7502

          k =-0.2111 0.3519 0.2111 (  1609 PWs)   bands (ev):

    -1.4357   1.0355   3.4573   3.4573   5.8584   5.8585   8.2122  10.5526
    10.7501  10.7501

          k =-0.4926-0.2111 0.2111 (  1614 PWs)   bands (ev):

    -0.3713  -0.3709   4.4065   4.4067   4.5768   4.5772   9.2200   9.2203
    11.9273  11.9278

          k =-0.2111-0.4926 0.2111 (  1614 PWs)   bands (ev):

    -0.3712  -0.3710   4.4065   4.4067   4.5769   4.5771   9.2201   9.2202
    11.9271  11.9277

          k = 0.3519-0.3519 0.2111 (  1617 PWs)   bands (ev):

    -0.7250   1.7346   1.7347   4.0735   4.2340   6.5380   6.5382   8.8974
    11.4182  13.5497

          k = 0.3519 0.2111 0.3519 (  1617 PWs)   bands (ev):

    -0.7250   1.7346   1.7346   4.0735   4.2340   6.5381   6.5381   8.8974
    11.4182  13.5496

          k =-0.4926-0.3519 0.2111 (  1626 PWs)   bands (ev):

     0.3345   0.3348   2.7766   2.7770   5.1795   5.1799   7.5536   7.5539
    12.3941  12.3944

          k =-0.2111-0.4926 0.3519 (  1626 PWs)   bands (ev):

     0.3345   0.3347   2.7767   2.7769   5.1796   5.1798   7.5536   7.5538
    12.3942  12.3944

          k = 0.3519-0.4926 0.2111 (  1626 PWs)   bands (ev):

     0.3345   0.3347   2.7767   2.7769   5.1796   5.1798   7.5536   7.5538
    12.3942  12.3944

          k =-0.4926 0.2111 0.3519 (  1626 PWs)   bands (ev):

     0.3345   0.3348   2.7766   2.7770   5.1795   5.1799   7.5535   7.5539
    12.3941  12.3945

          k = 0.3519 0.2111 0.4926 (  1626 PWs)   bands (ev):

     0.3344   0.3349   2.7765   2.7770   5.1795   5.1800   7.5535   7.5540
    12.3941  12.3945

          k =-0.4926 0.4926 0.2111 (  1616 PWs)   bands (ev):

     1.3867   1.3869   1.3871   1.3872   6.2009   6.2012   6.2014   6.2014
    13.3678  13.3680

          k =-0.4926 0.2111-0.4926 (  1616 PWs)   bands (ev):

     1.3866   1.3870   1.3871   1.3874   6.2007   6.2012   6.2013   6.2016
    13.3675  13.3681

          k =-0.4926-0.3519 0.3519 (  1612 PWs)   bands (ev):

     1.0371   1.0374   3.4055   3.4058   3.5377   3.5381   5.8718   5.8722
    15.3307  15.3313

          k =-0.3519-0.4926 0.3519 (  1612 PWs)   bands (ev):

     1.0372   1.0373   3.4056   3.4057   3.5378   3.5380   5.8719   5.8721
    15.3309  15.3312

          k =-0.4926 0.4926 0.3519 (  1616 PWs)   bands (ev):

     2.0844   2.0847   2.0849   2.0850   4.5062   4.5065   4.5067   4.5068
    16.1556  16.1558

          k =-0.4926 0.3519-0.4926 (  1616 PWs)   bands (ev):

     2.0843   2.0847   2.0848   2.0851   4.5061   4.5065   4.5067   4.5070
    16.1556  16.1558

     the Fermi energy is     7.5092 ev

!    total energy              =    -158.00401074 Ry
     Harris-Foulkes estimate   =    -158.00401097 Ry
     estimated scf accuracy    <       0.00000009 Ry

     total all-electron energy =     -1942.575138 Ry

     The total energy is the sum of the following terms:

     one-electron contribution =      12.28902684 Ry
     hartree contribution      =       0.02353023 Ry
     xc contribution           =     -10.28154586 Ry
     ewald contribution        =     -21.33938204 Ry
     one-center paw contrib.   =    -138.69538220 Ry
     smearing contrib. (-TS)   =      -0.00025770 Ry

     convergence has been achieved in   6 iterations

     Forces acting on atoms (Ry/au):

     atom    1 type  1   force =     0.00000000    0.00000000    0.00000000
     atom    2 type  2   force =     0.00000000    0.00000000    0.00000000
     atom    3 type  3   force =     0.00000000    0.00000000    0.00000000
     atom    4 type  4   force =     0.00000000    0.00000000    0.00000000

     Total force =     0.000000     Total SCF correction =     0.000000


     entering subroutine stress ...

          total   stress  (Ry/bohr**3)                   (kbar)     P=  -31.01
  -0.00021078   0.00000000   0.00000000        -31.01      0.00      0.00
   0.00000000  -0.00021078   0.00000000          0.00    -31.01      0.00
   0.00000000   0.00000000  -0.00021077          0.00      0.00    -31.01


     Writing output data file template.save

     init_run     :      1.46s CPU      1.50s WALL (       1 calls)
     electrons    :     21.46s CPU     21.90s WALL (       1 calls)
     forces       :      0.19s CPU      0.19s WALL (       1 calls)
     stress       :      0.53s CPU      0.54s WALL (       1 calls)

     Called by init_run:
     wfcinit      :      0.88s CPU      0.91s WALL (       1 calls)
     potinit      :      0.12s CPU      0.12s WALL (       1 calls)

     Called by electrons:
     c_bands      :     17.50s CPU     17.80s WALL (       7 calls)
     sum_band     :      3.01s CPU      3.08s WALL (       7 calls)
     v_of_rho     :      0.14s CPU      0.14s WALL (       7 calls)
     newd         :      0.15s CPU      0.16s WALL (       7 calls)
     PAW_pot      :      0.73s CPU      0.80s WALL (       7 calls)
     mix_rho      :      0.02s CPU      0.02s WALL (       7 calls)

     Called by c_bands:
     init_us_2    :      0.43s CPU      0.41s WALL (    1088 calls)
     cegterg      :     16.90s CPU     17.25s WALL (     448 calls)

     Called by sum_band:
     sum_band:bec :      0.00s CPU      0.01s WALL (     448 calls)
     addusdens    :      0.17s CPU      0.18s WALL (       7 calls)

     Called by *egterg:
     h_psi        :     15.74s CPU     15.99s WALL (    1509 calls)
     s_psi        :      0.28s CPU      0.29s WALL (    1509 calls)
     g_psi        :      0.04s CPU      0.04s WALL (     997 calls)
     cdiaghg      :      0.48s CPU      0.54s WALL (    1381 calls)

     Called by h_psi:
     h_psi:pot    :     15.69s CPU     15.95s WALL (    1509 calls)
     h_psi:calbec :      0.55s CPU      0.45s WALL (    1509 calls)
     vloc_psi     :     14.84s CPU     15.19s WALL (    1509 calls)
     add_vuspsi   :      0.29s CPU      0.31s WALL (    1509 calls)

     General routines
     calbec       :      0.74s CPU      0.64s WALL (    2277 calls)
     fft          :      0.12s CPU      0.14s WALL (     137 calls)
     ffts         :      0.00s CPU      0.01s WALL (      14 calls)
     fftw         :     16.55s CPU     16.93s WALL (   29234 calls)
     interpolate  :      0.03s CPU      0.03s WALL (      14 calls)
     davcio       :      0.00s CPU      0.00s WALL (      64 calls)

     Parallel routines
     fft_scatter  :      3.24s CPU      3.44s WALL (   29385 calls)

     PWSCF        :    24.81s CPU        25.42s WALL


   This run was terminated on:  13:39:23   9Jun2017            

=------------------------------------------------------------------------------=
   JOB DONE.
=------------------------------------------------------------------------------=
