
     Program PWSCF v.6.0 (svn rev. 13079) starts on  9Jun2017 at 13:40:14 

     This program is part of the open-source Quantum ESPRESSO suite
     for quantum simulation of materials; please cite
         "P. Giannozzi et al., J. Phys.:Condens. Matter 21 395502 (2009);
          URL http://www.quantum-espresso.org", 
     in publications or presentations arising from this work. More details at
     http://www.quantum-espresso.org/quote

     Parallel version (MPI), running on     4 processors
     R & G space division:  proc/nbgrp/npool/nimage =       4
     Waiting for input...
     Reading input from standard input
Warning: card &IONS ignored
Warning: card ION_DYNAMICS='BFGS', ignored
Warning: card / ignored
Warning: card &CELL ignored
Warning: card CELL_DYNAMICS='BFGS', ignored
Warning: card PRESS = 0.0, ignored
Warning: card CELL_FACTOR = 2.0, ignored
Warning: card / ignored

     Current dimensions of program PWSCF are:
     Max number of different atomic species (ntypx) = 10
     Max number of k-points (npk) =  40000
     Max angular momentum in pseudopotentials (lmaxx) =  3
               file Al.pbe-nl-kjpaw_psl.1.0.0.UPF: wavefunction(s)  3S 3P renormalized
               file Al.pbe-nl-kjpaw_psl.1.0.0.UPF: wavefunction(s)  3S 3P renormalized
               file Al.pbe-nl-kjpaw_psl.1.0.0.UPF: wavefunction(s)  3S 3P renormalized
               file Al.pbe-nl-kjpaw_psl.1.0.0.UPF: wavefunction(s)  3S 3P renormalized

     Subspace diagonalization in iterative solution of the eigenvalue problem:
     a serial algorithm will be used


     Parallelization info
     --------------------
     sticks:   dense  smooth     PW     G-vecs:    dense   smooth      PW
     Min         243     169     55                 5755     3378     593
     Max         244     171     56                 5759     3381     594
     Sum         973     681    221                23031    13517    2373



     bravais-lattice index     =            0
     lattice parameter (alat)  =       7.6205  a.u.
     unit-cell volume          =     483.5644 (a.u.)^3
     number of atoms/cell      =            4
     number of atomic types    =            4
     number of electrons       =        12.00
     number of Kohn-Sham states=           10
     kinetic-energy cutoff     =      35.0000  Ry
     charge density cutoff     =     200.0000  Ry
     convergence threshold     =      1.0E-06
     mixing beta               =       0.3000
     number of iterations used =           10  TF        mixing
     Exchange-correlation      =  SLA  PW   PBX  PBC ( 1  4  3  4 0 0)

     celldm(1)=   7.620455  celldm(2)=   0.000000  celldm(3)=   0.000000
     celldm(4)=   0.000000  celldm(5)=   0.000000  celldm(6)=   0.000000

     crystal axes: (cart. coord. in units of alat)
               a(1) = (   1.030000   0.000000   0.000000 )  
               a(2) = (   0.000000   1.030000   0.000000 )  
               a(3) = (   0.000000   0.000000   1.030000 )  

     reciprocal axes: (cart. coord. in units 2 pi/alat)
               b(1) = (  0.970874  0.000000  0.000000 )  
               b(2) = (  0.000000  0.970874  0.000000 )  
               b(3) = (  0.000000  0.000000  0.970874 )  


     PseudoPot. # 1 for Al read from file:
     /home/ben/espresso/pp/Al.pbe-nl-kjpaw_psl.1.0.0.UPF
     MD5 check sum: 339dbea23cf3ab9a065ad45c0f9085d7
     Pseudo is Projector augmented-wave + core cor, Zval =  3.0
     Generated using "atomic" code by A. Dal Corso  v.5.1
     Shape of augmentation charge: PSQ
     Using radial grid of 1135 points,  4 beta functions with: 
                l(1) =   0
                l(2) =   0
                l(3) =   1
                l(4) =   1
     Q(r) pseudized with 0 coefficients 


     PseudoPot. # 2 for Al read from file:
     /home/ben/espresso/pp/Al.pbe-nl-kjpaw_psl.1.0.0.UPF
     MD5 check sum: 339dbea23cf3ab9a065ad45c0f9085d7
     Pseudo is Projector augmented-wave + core cor, Zval =  3.0
     Generated using "atomic" code by A. Dal Corso  v.5.1
     Shape of augmentation charge: PSQ
     Using radial grid of 1135 points,  4 beta functions with: 
                l(1) =   0
                l(2) =   0
                l(3) =   1
                l(4) =   1
     Q(r) pseudized with 0 coefficients 


     PseudoPot. # 3 for Al read from file:
     /home/ben/espresso/pp/Al.pbe-nl-kjpaw_psl.1.0.0.UPF
     MD5 check sum: 339dbea23cf3ab9a065ad45c0f9085d7
     Pseudo is Projector augmented-wave + core cor, Zval =  3.0
     Generated using "atomic" code by A. Dal Corso  v.5.1
     Shape of augmentation charge: PSQ
     Using radial grid of 1135 points,  4 beta functions with: 
                l(1) =   0
                l(2) =   0
                l(3) =   1
                l(4) =   1
     Q(r) pseudized with 0 coefficients 


     PseudoPot. # 4 for Al read from file:
     /home/ben/espresso/pp/Al.pbe-nl-kjpaw_psl.1.0.0.UPF
     MD5 check sum: 339dbea23cf3ab9a065ad45c0f9085d7
     Pseudo is Projector augmented-wave + core cor, Zval =  3.0
     Generated using "atomic" code by A. Dal Corso  v.5.1
     Shape of augmentation charge: PSQ
     Using radial grid of 1135 points,  4 beta functions with: 
                l(1) =   0
                l(2) =   0
                l(3) =   1
                l(4) =   1
     Q(r) pseudized with 0 coefficients 


     atomic species   valence    mass     pseudopotential
        Al1            3.00    26.98200     Al( 1.00)
        Al2            3.00    26.98200     Al( 1.00)
        Al3            3.00    26.98200     Al( 1.00)
        Al4            3.00    26.98200     Al( 1.00)

      8 Sym. Ops., with inversion, found



   Cartesian axes

     site n.     atom                  positions (alat units)
         1           Al1 tau(   1) = (   0.0000000   0.0000000   0.0000000  )
         2           Al2 tau(   2) = (   0.5150000   0.5150000   0.0000000  )
         3           Al3 tau(   3) = (   0.5150000   0.0000000   0.5150000  )
         4           Al4 tau(   4) = (   0.0000000   0.5150000   0.5150000  )

     number of k points=    64  Marzari-Vanderbilt smearing, width (Ry)=  0.0200
                       cart. coord. in units 2pi/alat
        k(    1) = (   0.0693481   0.0693481   0.0693481), wk =   0.0466472
        k(    2) = (   0.0693481   0.0693481   0.2080444), wk =   0.0466472
        k(    3) = (   0.0693481   0.0693481   0.3467406), wk =   0.0466472
        k(    4) = (   0.0693481   0.0693481  -0.4854369), wk =   0.0233236
        k(    5) = (   0.0693481   0.2080444   0.2080444), wk =   0.0466472
        k(    6) = (   0.0693481   0.2080444   0.3467406), wk =   0.0466472
        k(    7) = (   0.0693481   0.2080444  -0.4854369), wk =   0.0233236
        k(    8) = (   0.0693481   0.3467406   0.3467406), wk =   0.0466472
        k(    9) = (   0.0693481   0.3467406  -0.4854369), wk =   0.0233236
        k(   10) = (   0.0693481  -0.4854369  -0.4854369), wk =   0.0116618
        k(   11) = (   0.2080444   0.2080444   0.2080444), wk =   0.0466472
        k(   12) = (   0.2080444   0.2080444   0.3467406), wk =   0.0466472
        k(   13) = (   0.2080444   0.2080444  -0.4854369), wk =   0.0233236
        k(   14) = (   0.2080444   0.3467406   0.3467406), wk =   0.0466472
        k(   15) = (   0.2080444   0.3467406  -0.4854369), wk =   0.0233236
        k(   16) = (   0.2080444  -0.4854369  -0.4854369), wk =   0.0116618
        k(   17) = (   0.3467406   0.3467406   0.3467406), wk =   0.0466472
        k(   18) = (   0.3467406   0.3467406  -0.4854369), wk =   0.0233236
        k(   19) = (   0.3467406  -0.4854369  -0.4854369), wk =   0.0116618
        k(   20) = (  -0.4854369  -0.4854369  -0.4854369), wk =   0.0058309
        k(   21) = (   0.2080444  -0.0693481   0.0693481), wk =   0.0466472
        k(   22) = (  -0.0693481   0.2080444   0.0693481), wk =   0.0466472
        k(   23) = (   0.3467406  -0.0693481   0.0693481), wk =   0.0466472
        k(   24) = (  -0.0693481   0.3467406   0.0693481), wk =   0.0466472
        k(   25) = (  -0.4854369  -0.0693481   0.0693481), wk =   0.0233236
        k(   26) = (  -0.0693481  -0.4854369   0.0693481), wk =   0.0233236
        k(   27) = (   0.2080444  -0.2080444   0.0693481), wk =   0.0466472
        k(   28) = (   0.2080444   0.0693481   0.2080444), wk =   0.0466472
        k(   29) = (   0.3467406  -0.2080444   0.0693481), wk =   0.0466472
        k(   30) = (  -0.0693481   0.3467406   0.2080444), wk =   0.0466472
        k(   31) = (   0.2080444   0.3467406   0.0693481), wk =   0.0466472
        k(   32) = (   0.3467406   0.0693481   0.2080444), wk =   0.0466472
        k(   33) = (   0.2080444   0.0693481  -0.3467406), wk =   0.0466472
        k(   34) = (  -0.4854369  -0.2080444   0.0693481), wk =   0.0233236
        k(   35) = (  -0.0693481  -0.4854369   0.2080444), wk =   0.0233236
        k(   36) = (   0.2080444  -0.4854369   0.0693481), wk =   0.0233236
        k(   37) = (  -0.4854369   0.0693481   0.2080444), wk =   0.0233236
        k(   38) = (   0.2080444   0.0693481   0.4854369), wk =   0.0233236
        k(   39) = (   0.3467406  -0.3467406   0.0693481), wk =   0.0466472
        k(   40) = (   0.3467406   0.0693481   0.3467406), wk =   0.0466472
        k(   41) = (  -0.4854369  -0.3467406   0.0693481), wk =   0.0233236
        k(   42) = (  -0.0693481  -0.4854369   0.3467406), wk =   0.0233236
        k(   43) = (   0.3467406  -0.4854369   0.0693481), wk =   0.0233236
        k(   44) = (  -0.4854369   0.0693481   0.3467406), wk =   0.0233236
        k(   45) = (   0.3467406   0.0693481   0.4854369), wk =   0.0233236
        k(   46) = (  -0.4854369   0.4854369   0.0693481), wk =   0.0116618
        k(   47) = (  -0.4854369   0.0693481  -0.4854369), wk =   0.0116618
        k(   48) = (   0.3467406  -0.2080444   0.2080444), wk =   0.0466472
        k(   49) = (  -0.2080444   0.3467406   0.2080444), wk =   0.0466472
        k(   50) = (  -0.4854369  -0.2080444   0.2080444), wk =   0.0233236
        k(   51) = (  -0.2080444  -0.4854369   0.2080444), wk =   0.0233236
        k(   52) = (   0.3467406  -0.3467406   0.2080444), wk =   0.0466472
        k(   53) = (   0.3467406   0.2080444   0.3467406), wk =   0.0466472
        k(   54) = (  -0.4854369  -0.3467406   0.2080444), wk =   0.0233236
        k(   55) = (  -0.2080444  -0.4854369   0.3467406), wk =   0.0233236
        k(   56) = (   0.3467406  -0.4854369   0.2080444), wk =   0.0233236
        k(   57) = (  -0.4854369   0.2080444   0.3467406), wk =   0.0233236
        k(   58) = (   0.3467406   0.2080444   0.4854369), wk =   0.0233236
        k(   59) = (  -0.4854369   0.4854369   0.2080444), wk =   0.0116618
        k(   60) = (  -0.4854369   0.2080444  -0.4854369), wk =   0.0116618
        k(   61) = (  -0.4854369  -0.3467406   0.3467406), wk =   0.0233236
        k(   62) = (  -0.3467406  -0.4854369   0.3467406), wk =   0.0233236
        k(   63) = (  -0.4854369   0.4854369   0.3467406), wk =   0.0116618
        k(   64) = (  -0.4854369   0.3467406  -0.4854369), wk =   0.0116618

     Dense  grid:    23031 G-vectors     FFT dimensions: (  36,  36,  36)

     Smooth grid:    13517 G-vectors     FFT dimensions: (  30,  30,  30)

     Estimated max dynamical RAM per process >       8.67Mb

     Estimated total allocated dynamical RAM >      34.66Mb

     Initial potential from superposition of free atoms

     starting charge   11.99084, renormalised to   12.00000
     Starting wfc are   16 randomized atomic wfcs
     Checking if some PAW data can be deallocated... 

     total cpu time spent up to now is        2.5 secs

     per-process dynamical memory:    17.6 Mb

     Self-consistent Calculation

     iteration #  1     ecut=    35.00 Ry     beta=0.30
     Davidson diagonalization with overlap
     ethr =  1.00E-02,  avg # of iterations =  3.2

     Threshold (ethr) on eigenvalues was too large:
     Diagonalizing with lowered threshold

     Davidson diagonalization with overlap
     ethr =  1.99E-04,  avg # of iterations =  3.1

     total cpu time spent up to now is        6.4 secs

     total energy              =    -158.00178655 Ry
     Harris-Foulkes estimate   =    -158.00382880 Ry
     estimated scf accuracy    <       0.02291255 Ry

     iteration #  2     ecut=    35.00 Ry     beta=0.30
     Davidson diagonalization with overlap
     ethr =  1.91E-04,  avg # of iterations =  1.0

     total cpu time spent up to now is        7.7 secs

     total energy              =    -157.99752423 Ry
     Harris-Foulkes estimate   =    -158.00193733 Ry
     estimated scf accuracy    <       0.01429553 Ry

     iteration #  3     ecut=    35.00 Ry     beta=0.30
     Davidson diagonalization with overlap
     ethr =  1.19E-04,  avg # of iterations =  1.0

     total cpu time spent up to now is        9.2 secs

     total energy              =    -157.99784873 Ry
     Harris-Foulkes estimate   =    -157.99784570 Ry
     estimated scf accuracy    <       0.00003537 Ry

     iteration #  4     ecut=    35.00 Ry     beta=0.30
     Davidson diagonalization with overlap
     ethr =  2.95E-07,  avg # of iterations =  4.0

     total cpu time spent up to now is       11.7 secs

     total energy              =    -157.99792094 Ry
     Harris-Foulkes estimate   =    -157.99791173 Ry
     estimated scf accuracy    <       0.00001807 Ry

     iteration #  5     ecut=    35.00 Ry     beta=0.30
     Davidson diagonalization with overlap
     ethr =  1.51E-07,  avg # of iterations =  1.0

     total cpu time spent up to now is       15.8 secs

     total energy              =    -157.99791919 Ry
     Harris-Foulkes estimate   =    -157.99792209 Ry
     estimated scf accuracy    <       0.00000675 Ry

     iteration #  6     ecut=    35.00 Ry     beta=0.30
     Davidson diagonalization with overlap
     ethr =  5.62E-08,  avg # of iterations =  2.0

     total cpu time spent up to now is       21.0 secs

     End of self-consistent calculation

          k = 0.0693 0.0693 0.0693 (  1716 PWs)   bands (ev):

    -3.3702   3.7361   3.7362   3.7362   6.3429   6.3431   6.3431  10.5394
    10.5395  10.5395

          k = 0.0693 0.0693 0.2080 (  1699 PWs)   bands (ev):

    -3.0206   1.7853   4.0674   4.0675   6.6771   6.6773   8.6585   8.6586
     8.9054  10.8627

          k = 0.0693 0.0693 0.3467 (  1703 PWs)   bands (ev):

    -2.3236   0.0903   4.7284   4.7285   7.0155   7.0156   7.3611   7.3612
     9.6488   9.6491

          k = 0.0693 0.0693-0.4854 (  1702 PWs)   bands (ev):

    -1.2844  -1.2839   5.6810   5.6815   5.7527   5.7533   8.2139   8.2141
     8.4792   8.4799

          k = 0.0693 0.2080 0.2080 (  1693 PWs)   bands (ev):

    -2.6717   2.1233   2.1234   4.3981   6.7515   7.0434   8.9642   8.9644
     9.2496   9.2498

          k = 0.0693 0.2080 0.3467 (  1682 PWs)   bands (ev):

    -1.9764   0.4322   2.7973   5.0439   5.1492   7.3568   7.6846   9.6289
     9.8089  10.0471

          k = 0.0693 0.2080-0.4854 (  1690 PWs)   bands (ev):

    -0.9394  -0.9389   3.8027   3.8032   6.0472   6.0478   8.6685   8.6690
    10.5999  10.6005

          k = 0.0693 0.3467 0.3467 (  1691 PWs)   bands (ev):

    -1.2841   1.1139   1.1140   3.4761   5.7190   8.0111   8.0112   8.3456
    10.2844  10.6053

          k = 0.0693 0.3467-0.4854 (  1678 PWs)   bands (ev):

    -0.2516  -0.2512   2.1309   2.1314   6.7038   6.7044   8.9884   8.9890
     9.3260   9.3265

          k = 0.0693-0.4854-0.4854 (  1684 PWs)   bands (ev):

     0.7742   0.7745   0.7748   0.7749   7.6857   7.6861   7.6864   7.6864
    10.2975  10.2978

          k = 0.2080 0.2080 0.2080 (  1698 PWs)   bands (ev):

    -2.3237   2.4606   2.4607   2.4607   7.1043   7.1045   7.1045   9.5646
     9.5648   9.5649

          k = 0.2080 0.2080 0.3467 (  1687 PWs)   bands (ev):

    -1.6299   0.7734   3.1333   3.1334   5.4671   5.4672   7.7619  10.0391
    10.2109  10.2111

          k = 0.2080 0.2080-0.4854 (  1690 PWs)   bands (ev):

    -0.5952  -0.5947   4.1083   4.1087   4.1674   4.1680   8.7420   8.7426
    11.2624  11.2632

          k = 0.2080 0.3467 0.3467 (  1689 PWs)   bands (ev):

    -0.9391   1.4538   1.4539   3.7843   3.8318   6.1292   6.1293   8.4265
    10.8569  12.9934

          k = 0.2080 0.3467-0.4854 (  1692 PWs)   bands (ev):

     0.0911   0.0916   2.4688   2.4693   4.8049   4.8054   7.1178   7.1183
    11.8079  11.8084

          k = 0.2080-0.4854-0.4854 (  1696 PWs)   bands (ev):

     1.1148   1.1151   1.1154   1.1155   5.8002   5.8005   5.8009   5.8009
    12.7511  12.7515

          k = 0.3467 0.3467 0.3467 (  1694 PWs)   bands (ev):

    -0.2514   2.1314   2.1315   2.1316   4.4805   4.4807   4.4807   6.7991
    13.6990  13.6992

          k = 0.3467 0.3467-0.4854 (  1690 PWs)   bands (ev):

     0.7745   0.7750   3.1345   3.1349   3.1508   3.1514   5.4785   5.4790
    14.5945  14.5952

          k = 0.3467-0.4854-0.4854 (  1680 PWs)   bands (ev):

     1.7940   1.7943   1.7946   1.7947   4.1481   4.1484   4.1487   4.1488
    15.4586  15.4590

          k =-0.4854-0.4854-0.4854 (  1640 PWs)   bands (ev):

     2.8066   2.8073   2.8074   2.8077   2.8085   2.8086   2.8087   2.8091
    17.6340  17.6343

          k = 0.2080-0.0693 0.0693 (  1699 PWs)   bands (ev):

    -3.0206   1.7853   4.0674   4.0675   6.6771   6.6772   8.6586   8.6586
     8.9054  10.8627

          k =-0.0693 0.2080 0.0693 (  1699 PWs)   bands (ev):

    -3.0206   1.7853   4.0674   4.0674   6.6771   6.6772   8.6586   8.6586
     8.9054  10.8627

          k = 0.3467-0.0693 0.0693 (  1703 PWs)   bands (ev):

    -2.3236   0.0903   4.7284   4.7285   7.0155   7.0156   7.3611   7.3612
     9.6488   9.6490

          k =-0.0693 0.3467 0.0693 (  1703 PWs)   bands (ev):

    -2.3236   0.0903   4.7284   4.7284   7.0155   7.0156   7.3611   7.3612
     9.6489   9.6490

          k =-0.4854-0.0693 0.0693 (  1702 PWs)   bands (ev):

    -1.2843  -1.2839   5.6811   5.6814   5.7528   5.7532   8.2139   8.2141
     8.4793   8.4798

          k =-0.0693-0.4854 0.0693 (  1702 PWs)   bands (ev):

    -1.2842  -1.2840   5.6812   5.6813   5.7529   5.7531   8.2140   8.2140
     8.4794   8.4797

          k = 0.2080-0.2080 0.0693 (  1693 PWs)   bands (ev):

    -2.6717   2.1233   2.1234   4.3981   6.7515   7.0434   8.9642   8.9644
     9.2496   9.2498

          k = 0.2080 0.0693 0.2080 (  1693 PWs)   bands (ev):

    -2.6717   2.1233   2.1234   4.3981   6.7515   7.0434   8.9642   8.9643
     9.2497   9.2497

          k = 0.3467-0.2080 0.0693 (  1682 PWs)   bands (ev):

    -1.9764   0.4322   2.7973   5.0439   5.1492   7.3568   7.6846   9.6289
     9.8089  10.0471

          k =-0.0693 0.3467 0.2080 (  1682 PWs)   bands (ev):

    -1.9764   0.4322   2.7973   5.0439   5.1492   7.3568   7.6846   9.6289
     9.8089  10.0471

          k = 0.2080 0.3467 0.0693 (  1682 PWs)   bands (ev):

    -1.9764   0.4322   2.7973   5.0439   5.1492   7.3568   7.6846   9.6289
     9.8089  10.0471

          k = 0.3467 0.0693 0.2080 (  1682 PWs)   bands (ev):

    -1.9764   0.4322   2.7973   5.0439   5.1492   7.3568   7.6846   9.6289
     9.8089  10.0471

          k = 0.2080 0.0693-0.3467 (  1682 PWs)   bands (ev):

    -1.9764   0.4322   2.7973   5.0439   5.1492   7.3568   7.6846   9.6289
     9.8089  10.0471

          k =-0.4854-0.2080 0.0693 (  1690 PWs)   bands (ev):

    -0.9393  -0.9390   3.8028   3.8032   6.0473   6.0477   8.6686   8.6689
    10.6003  10.6011

          k =-0.0693-0.4854 0.2080 (  1690 PWs)   bands (ev):

    -0.9392  -0.9390   3.8029   3.8031   6.0474   6.0476   8.6687   8.6688
    10.6005  10.6016

          k = 0.2080-0.4854 0.0693 (  1690 PWs)   bands (ev):

    -0.9392  -0.9390   3.8029   3.8031   6.0474   6.0476   8.6687   8.6688
    10.6004  10.6009

          k =-0.4854 0.0693 0.2080 (  1690 PWs)   bands (ev):

    -0.9393  -0.9390   3.8028   3.8032   6.0473   6.0477   8.6686   8.6689
    10.6000  10.6014

          k = 0.2080 0.0693 0.4854 (  1690 PWs)   bands (ev):

    -0.9394  -0.9389   3.8027   3.8032   6.0472   6.0478   8.6685   8.6690
    10.6001  10.6025

          k = 0.3467-0.3467 0.0693 (  1691 PWs)   bands (ev):

    -1.2841   1.1139   1.1140   3.4761   5.7190   8.0111   8.0112   8.3456
    10.6044  10.6053

          k = 0.3467 0.0693 0.3467 (  1691 PWs)   bands (ev):

    -1.2841   1.1140   1.1140   3.4761   5.7190   8.0111   8.0112   8.3456
    10.6043  10.6053

          k =-0.4854-0.3467 0.0693 (  1678 PWs)   bands (ev):

    -0.2516  -0.2512   2.1310   2.1314   6.7039   6.7043   8.9885   8.9889
     9.3261   9.3264

          k =-0.0693-0.4854 0.3467 (  1678 PWs)   bands (ev):

    -0.2515  -0.2513   2.1311   2.1313   6.7040   6.7042   8.9886   8.9888
     9.3262   9.3263

          k = 0.3467-0.4854 0.0693 (  1678 PWs)   bands (ev):

    -0.2515  -0.2513   2.1311   2.1313   6.7040   6.7042   8.9886   8.9888
     9.3262   9.3263

          k =-0.4854 0.0693 0.3467 (  1678 PWs)   bands (ev):

    -0.2516  -0.2512   2.1310   2.1314   6.7039   6.7043   8.9885   8.9889
     9.3261   9.3264

          k = 0.3467 0.0693 0.4854 (  1678 PWs)   bands (ev):

    -0.2516  -0.2512   2.1309   2.1314   6.7038   6.7044   8.9884   8.9890
     9.3260   9.3265

          k =-0.4854 0.4854 0.0693 (  1684 PWs)   bands (ev):

     0.7743   0.7745   0.7747   0.7748   7.6858   7.6861   7.6863   7.6864
    10.2976  10.2978

          k =-0.4854 0.0693-0.4854 (  1684 PWs)   bands (ev):

     0.7741   0.7746   0.7747   0.7750   7.6856   7.6861   7.6863   7.6866
    10.2973  10.2977

          k = 0.3467-0.2080 0.2080 (  1687 PWs)   bands (ev):

    -1.6299   0.7734   3.1333   3.1334   5.4671   5.4672   7.7619  10.0391
    10.2109  10.2111

          k =-0.2080 0.3467 0.2080 (  1687 PWs)   bands (ev):

    -1.6299   0.7734   3.1334   3.1334   5.4671   5.4672   7.7619  10.0391
    10.2110  10.2110

          k =-0.4854-0.2080 0.2080 (  1690 PWs)   bands (ev):

    -0.5951  -0.5948   4.1084   4.1086   4.1674   4.1679   8.7421   8.7425
    11.2625  11.2631

          k =-0.2080-0.4854 0.2080 (  1690 PWs)   bands (ev):

    -0.5950  -0.5948   4.1084   4.1086   4.1676   4.1678   8.7422   8.7424
    11.2627  11.2630

          k = 0.3467-0.3467 0.2080 (  1689 PWs)   bands (ev):

    -0.9391   1.4538   1.4539   3.7843   3.8318   6.1292   6.1293   8.4265
    10.8569  12.9932

          k = 0.3467 0.2080 0.3467 (  1689 PWs)   bands (ev):

    -0.9391   1.4538   1.4538   3.7843   3.8318   6.1292   6.1293   8.4265
    10.8569  12.9935

          k =-0.4854-0.3467 0.2080 (  1692 PWs)   bands (ev):

     0.0911   0.0915   2.4688   2.4692   4.8049   4.8053   7.1179   7.1183
    11.8080  11.8083

          k =-0.2080-0.4854 0.3467 (  1692 PWs)   bands (ev):

     0.0912   0.0914   2.4689   2.4691   4.8050   4.8052   7.1180   7.1182
    11.8081  11.8082

          k = 0.3467-0.4854 0.2080 (  1692 PWs)   bands (ev):

     0.0912   0.0914   2.4689   2.4691   4.8050   4.8052   7.1180   7.1182
    11.8081  11.8082

          k =-0.4854 0.2080 0.3467 (  1692 PWs)   bands (ev):

     0.0911   0.0915   2.4688   2.4692   4.8049   4.8053   7.1179   7.1183
    11.8080  11.8083

          k = 0.3467 0.2080 0.4854 (  1692 PWs)   bands (ev):

     0.0911   0.0916   2.4688   2.4693   4.8049   4.8054   7.1178   7.1183
    11.8079  11.8084

          k =-0.4854 0.4854 0.2080 (  1696 PWs)   bands (ev):

     1.1149   1.1151   1.1153   1.1154   5.8003   5.8006   5.8008   5.8009
    12.7512  12.7514

          k =-0.4854 0.2080-0.4854 (  1696 PWs)   bands (ev):

     1.1147   1.1152   1.1153   1.1156   5.8002   5.8006   5.8007   5.8011
    12.7511  12.7515

          k =-0.4854-0.3467 0.3467 (  1690 PWs)   bands (ev):

     0.7745   0.7749   3.1345   3.1348   3.1509   3.1514   5.4785   5.4789
    14.5946  14.5952

          k =-0.3467-0.4854 0.3467 (  1690 PWs)   bands (ev):

     0.7746   0.7748   3.1346   3.1347   3.1510   3.1512   5.4786   5.4788
    14.5947  14.5950

          k =-0.4854 0.4854 0.3467 (  1680 PWs)   bands (ev):

     1.7941   1.7944   1.7946   1.7946   4.1482   4.1485   4.1487   4.1487
    15.4586  15.4590

          k =-0.4854 0.3467-0.4854 (  1680 PWs)   bands (ev):

     1.7939   1.7944   1.7945   1.7948   4.1480   4.1485   4.1486   4.1489
    15.4587  15.4590

     the Fermi energy is     7.0772 ev

!    total energy              =    -157.99791974 Ry
     Harris-Foulkes estimate   =    -157.99792003 Ry
     estimated scf accuracy    <       0.00000010 Ry

     total all-electron energy =     -1942.569047 Ry

     The total energy is the sum of the following terms:

     one-electron contribution =      11.88323854 Ry
     hartree contribution      =       0.02410969 Ry
     xc contribution           =     -10.19237348 Ry
     ewald contribution        =     -21.02861434 Ry
     one-center paw contrib.   =    -138.68368965 Ry
     smearing contrib. (-TS)   =      -0.00059050 Ry

     convergence has been achieved in   6 iterations

     Forces acting on atoms (Ry/au):

     atom    1 type  1   force =     0.00000000    0.00000000    0.00000000
     atom    2 type  2   force =     0.00000000    0.00000000    0.00000000
     atom    3 type  3   force =     0.00000000    0.00000000    0.00000000
     atom    4 type  4   force =     0.00000000    0.00000000    0.00000000

     Total force =     0.000000     Total SCF correction =     0.000000


     entering subroutine stress ...

          total   stress  (Ry/bohr**3)                   (kbar)     P=  -54.57
  -0.00037098   0.00000000   0.00000000        -54.57      0.00      0.00
   0.00000000  -0.00037098   0.00000000          0.00    -54.57      0.00
   0.00000000   0.00000000  -0.00037098          0.00      0.00    -54.57


     Writing output data file template.save

     init_run     :      1.45s CPU      1.51s WALL (       1 calls)
     electrons    :     18.08s CPU     18.45s WALL (       1 calls)
     forces       :      0.66s CPU      0.67s WALL (       1 calls)
     stress       :      1.75s CPU      1.77s WALL (       1 calls)

     Called by init_run:
     wfcinit      :      0.88s CPU      0.93s WALL (       1 calls)
     potinit      :      0.12s CPU      0.13s WALL (       1 calls)

     Called by electrons:
     c_bands      :     13.97s CPU     14.27s WALL (       7 calls)
     sum_band     :      3.09s CPU      3.15s WALL (       7 calls)
     v_of_rho     :      0.14s CPU      0.14s WALL (       7 calls)
     newd         :      0.15s CPU      0.16s WALL (       7 calls)
     PAW_pot      :      0.78s CPU      0.79s WALL (       7 calls)
     mix_rho      :      0.01s CPU      0.02s WALL (       7 calls)

     Called by c_bands:
     init_us_2    :      0.44s CPU      0.44s WALL (    1088 calls)
     cegterg      :     13.54s CPU     13.82s WALL (     448 calls)

     Called by sum_band:
     sum_band:bec :      0.01s CPU      0.01s WALL (     448 calls)
     addusdens    :      0.19s CPU      0.20s WALL (       7 calls)

     Called by *egterg:
     h_psi        :     12.68s CPU     12.95s WALL (    1489 calls)
     s_psi        :      0.22s CPU      0.23s WALL (    1489 calls)
     g_psi        :      0.02s CPU      0.03s WALL (     977 calls)
     cdiaghg      :      0.44s CPU      0.43s WALL (    1361 calls)

     Called by h_psi:
     h_psi:pot    :     12.65s CPU     12.92s WALL (    1489 calls)
     h_psi:calbec :      0.34s CPU      0.38s WALL (    1489 calls)
     vloc_psi     :     12.10s CPU     12.27s WALL (    1489 calls)
     add_vuspsi   :      0.21s CPU      0.25s WALL (    1489 calls)

     General routines
     calbec       :      0.78s CPU      0.85s WALL (    2257 calls)
     fft          :      0.19s CPU      0.20s WALL (     137 calls)
     ffts         :      0.01s CPU      0.01s WALL (      14 calls)
     fftw         :     14.04s CPU     14.18s WALL (   29162 calls)
     interpolate  :      0.04s CPU      0.03s WALL (      14 calls)
     davcio       :      0.00s CPU      0.01s WALL (      64 calls)

     Parallel routines
     fft_scatter  :      3.10s CPU      3.20s WALL (   29313 calls)

     PWSCF        :    23.38s CPU        23.99s WALL


   This run was terminated on:  13:40:38   9Jun2017            

=------------------------------------------------------------------------------=
   JOB DONE.
=------------------------------------------------------------------------------=
