
     Program PWSCF v.6.0 (svn rev. 13079) starts on  9Jun2017 at 13:35: 2 

     This program is part of the open-source Quantum ESPRESSO suite
     for quantum simulation of materials; please cite
         "P. Giannozzi et al., J. Phys.:Condens. Matter 21 395502 (2009);
          URL http://www.quantum-espresso.org", 
     in publications or presentations arising from this work. More details at
     http://www.quantum-espresso.org/quote

     Parallel version (MPI), running on     4 processors
     R & G space division:  proc/nbgrp/npool/nimage =       4
     Waiting for input...
     Reading input from standard input
Warning: card &IONS ignored
Warning: card ION_DYNAMICS='BFGS', ignored
Warning: card / ignored
Warning: card &CELL ignored
Warning: card CELL_DYNAMICS='BFGS', ignored
Warning: card PRESS = 0.0, ignored
Warning: card CELL_FACTOR = 2.0, ignored
Warning: card / ignored

     Current dimensions of program PWSCF are:
     Max number of different atomic species (ntypx) = 10
     Max number of k-points (npk) =  40000
     Max angular momentum in pseudopotentials (lmaxx) =  3
               file Al.pbe-nl-kjpaw_psl.1.0.0.UPF: wavefunction(s)  3S 3P renormalized
               file Al.pbe-nl-kjpaw_psl.1.0.0.UPF: wavefunction(s)  3S 3P renormalized
               file Al.pbe-nl-kjpaw_psl.1.0.0.UPF: wavefunction(s)  3S 3P renormalized
               file Al.pbe-nl-kjpaw_psl.1.0.0.UPF: wavefunction(s)  3S 3P renormalized

     Subspace diagonalization in iterative solution of the eigenvalue problem:
     a serial algorithm will be used


     Parallelization info
     --------------------
     sticks:   dense  smooth     PW     G-vecs:    dense   smooth      PW
     Min         211     148     46                 4587     2706     482
     Max         212     149     47                 4588     2709     485
     Sum         845     593    185                18349    10827    1935



     bravais-lattice index     =            0
     lattice parameter (alat)  =       7.6205  a.u.
     unit-cell volume          =     385.4365 (a.u.)^3
     number of atoms/cell      =            4
     number of atomic types    =            4
     number of electrons       =        12.00
     number of Kohn-Sham states=           10
     kinetic-energy cutoff     =      35.0000  Ry
     charge density cutoff     =     200.0000  Ry
     convergence threshold     =      1.0E-06
     mixing beta               =       0.3000
     number of iterations used =           10  TF        mixing
     Exchange-correlation      =  SLA  PW   PBX  PBC ( 1  4  3  4 0 0)

     celldm(1)=   7.620455  celldm(2)=   0.000000  celldm(3)=   0.000000
     celldm(4)=   0.000000  celldm(5)=   0.000000  celldm(6)=   0.000000

     crystal axes: (cart. coord. in units of alat)
               a(1) = (   0.955000   0.000000   0.000000 )  
               a(2) = (   0.000000   0.955000   0.000000 )  
               a(3) = (   0.000000   0.000000   0.955000 )  

     reciprocal axes: (cart. coord. in units 2 pi/alat)
               b(1) = (  1.047120  0.000000  0.000000 )  
               b(2) = (  0.000000  1.047120  0.000000 )  
               b(3) = (  0.000000  0.000000  1.047120 )  


     PseudoPot. # 1 for Al read from file:
     /home/ben/espresso/pp/Al.pbe-nl-kjpaw_psl.1.0.0.UPF
     MD5 check sum: 339dbea23cf3ab9a065ad45c0f9085d7
     Pseudo is Projector augmented-wave + core cor, Zval =  3.0
     Generated using "atomic" code by A. Dal Corso  v.5.1
     Shape of augmentation charge: PSQ
     Using radial grid of 1135 points,  4 beta functions with: 
                l(1) =   0
                l(2) =   0
                l(3) =   1
                l(4) =   1
     Q(r) pseudized with 0 coefficients 


     PseudoPot. # 2 for Al read from file:
     /home/ben/espresso/pp/Al.pbe-nl-kjpaw_psl.1.0.0.UPF
     MD5 check sum: 339dbea23cf3ab9a065ad45c0f9085d7
     Pseudo is Projector augmented-wave + core cor, Zval =  3.0
     Generated using "atomic" code by A. Dal Corso  v.5.1
     Shape of augmentation charge: PSQ
     Using radial grid of 1135 points,  4 beta functions with: 
                l(1) =   0
                l(2) =   0
                l(3) =   1
                l(4) =   1
     Q(r) pseudized with 0 coefficients 


     PseudoPot. # 3 for Al read from file:
     /home/ben/espresso/pp/Al.pbe-nl-kjpaw_psl.1.0.0.UPF
     MD5 check sum: 339dbea23cf3ab9a065ad45c0f9085d7
     Pseudo is Projector augmented-wave + core cor, Zval =  3.0
     Generated using "atomic" code by A. Dal Corso  v.5.1
     Shape of augmentation charge: PSQ
     Using radial grid of 1135 points,  4 beta functions with: 
                l(1) =   0
                l(2) =   0
                l(3) =   1
                l(4) =   1
     Q(r) pseudized with 0 coefficients 


     PseudoPot. # 4 for Al read from file:
     /home/ben/espresso/pp/Al.pbe-nl-kjpaw_psl.1.0.0.UPF
     MD5 check sum: 339dbea23cf3ab9a065ad45c0f9085d7
     Pseudo is Projector augmented-wave + core cor, Zval =  3.0
     Generated using "atomic" code by A. Dal Corso  v.5.1
     Shape of augmentation charge: PSQ
     Using radial grid of 1135 points,  4 beta functions with: 
                l(1) =   0
                l(2) =   0
                l(3) =   1
                l(4) =   1
     Q(r) pseudized with 0 coefficients 


     atomic species   valence    mass     pseudopotential
        Al1            3.00    26.98200     Al( 1.00)
        Al2            3.00    26.98200     Al( 1.00)
        Al3            3.00    26.98200     Al( 1.00)
        Al4            3.00    26.98200     Al( 1.00)

      8 Sym. Ops., with inversion, found



   Cartesian axes

     site n.     atom                  positions (alat units)
         1           Al1 tau(   1) = (   0.0000000   0.0000000   0.0000000  )
         2           Al2 tau(   2) = (   0.4775000   0.4775000   0.0000000  )
         3           Al3 tau(   3) = (   0.4775000   0.0000000   0.4775000  )
         4           Al4 tau(   4) = (   0.0000000   0.4775000   0.4775000  )

     number of k points=    64  Marzari-Vanderbilt smearing, width (Ry)=  0.0200
                       cart. coord. in units 2pi/alat
        k(    1) = (   0.0747943   0.0747943   0.0747943), wk =   0.0466472
        k(    2) = (   0.0747943   0.0747943   0.2243829), wk =   0.0466472
        k(    3) = (   0.0747943   0.0747943   0.3739716), wk =   0.0466472
        k(    4) = (   0.0747943   0.0747943  -0.5235602), wk =   0.0233236
        k(    5) = (   0.0747943   0.2243829   0.2243829), wk =   0.0466472
        k(    6) = (   0.0747943   0.2243829   0.3739716), wk =   0.0466472
        k(    7) = (   0.0747943   0.2243829  -0.5235602), wk =   0.0233236
        k(    8) = (   0.0747943   0.3739716   0.3739716), wk =   0.0466472
        k(    9) = (   0.0747943   0.3739716  -0.5235602), wk =   0.0233236
        k(   10) = (   0.0747943  -0.5235602  -0.5235602), wk =   0.0116618
        k(   11) = (   0.2243829   0.2243829   0.2243829), wk =   0.0466472
        k(   12) = (   0.2243829   0.2243829   0.3739716), wk =   0.0466472
        k(   13) = (   0.2243829   0.2243829  -0.5235602), wk =   0.0233236
        k(   14) = (   0.2243829   0.3739716   0.3739716), wk =   0.0466472
        k(   15) = (   0.2243829   0.3739716  -0.5235602), wk =   0.0233236
        k(   16) = (   0.2243829  -0.5235602  -0.5235602), wk =   0.0116618
        k(   17) = (   0.3739716   0.3739716   0.3739716), wk =   0.0466472
        k(   18) = (   0.3739716   0.3739716  -0.5235602), wk =   0.0233236
        k(   19) = (   0.3739716  -0.5235602  -0.5235602), wk =   0.0116618
        k(   20) = (  -0.5235602  -0.5235602  -0.5235602), wk =   0.0058309
        k(   21) = (   0.2243829  -0.0747943   0.0747943), wk =   0.0466472
        k(   22) = (  -0.0747943   0.2243829   0.0747943), wk =   0.0466472
        k(   23) = (   0.3739716  -0.0747943   0.0747943), wk =   0.0466472
        k(   24) = (  -0.0747943   0.3739716   0.0747943), wk =   0.0466472
        k(   25) = (  -0.5235602  -0.0747943   0.0747943), wk =   0.0233236
        k(   26) = (  -0.0747943  -0.5235602   0.0747943), wk =   0.0233236
        k(   27) = (   0.2243829  -0.2243829   0.0747943), wk =   0.0466472
        k(   28) = (   0.2243829   0.0747943   0.2243829), wk =   0.0466472
        k(   29) = (   0.3739716  -0.2243829   0.0747943), wk =   0.0466472
        k(   30) = (  -0.0747943   0.3739716   0.2243829), wk =   0.0466472
        k(   31) = (   0.2243829   0.3739716   0.0747943), wk =   0.0466472
        k(   32) = (   0.3739716   0.0747943   0.2243829), wk =   0.0466472
        k(   33) = (   0.2243829   0.0747943  -0.3739716), wk =   0.0466472
        k(   34) = (  -0.5235602  -0.2243829   0.0747943), wk =   0.0233236
        k(   35) = (  -0.0747943  -0.5235602   0.2243829), wk =   0.0233236
        k(   36) = (   0.2243829  -0.5235602   0.0747943), wk =   0.0233236
        k(   37) = (  -0.5235602   0.0747943   0.2243829), wk =   0.0233236
        k(   38) = (   0.2243829   0.0747943   0.5235602), wk =   0.0233236
        k(   39) = (   0.3739716  -0.3739716   0.0747943), wk =   0.0466472
        k(   40) = (   0.3739716   0.0747943   0.3739716), wk =   0.0466472
        k(   41) = (  -0.5235602  -0.3739716   0.0747943), wk =   0.0233236
        k(   42) = (  -0.0747943  -0.5235602   0.3739716), wk =   0.0233236
        k(   43) = (   0.3739716  -0.5235602   0.0747943), wk =   0.0233236
        k(   44) = (  -0.5235602   0.0747943   0.3739716), wk =   0.0233236
        k(   45) = (   0.3739716   0.0747943   0.5235602), wk =   0.0233236
        k(   46) = (  -0.5235602   0.5235602   0.0747943), wk =   0.0116618
        k(   47) = (  -0.5235602   0.0747943  -0.5235602), wk =   0.0116618
        k(   48) = (   0.3739716  -0.2243829   0.2243829), wk =   0.0466472
        k(   49) = (  -0.2243829   0.3739716   0.2243829), wk =   0.0466472
        k(   50) = (  -0.5235602  -0.2243829   0.2243829), wk =   0.0233236
        k(   51) = (  -0.2243829  -0.5235602   0.2243829), wk =   0.0233236
        k(   52) = (   0.3739716  -0.3739716   0.2243829), wk =   0.0466472
        k(   53) = (   0.3739716   0.2243829   0.3739716), wk =   0.0466472
        k(   54) = (  -0.5235602  -0.3739716   0.2243829), wk =   0.0233236
        k(   55) = (  -0.2243829  -0.5235602   0.3739716), wk =   0.0233236
        k(   56) = (   0.3739716  -0.5235602   0.2243829), wk =   0.0233236
        k(   57) = (  -0.5235602   0.2243829   0.3739716), wk =   0.0233236
        k(   58) = (   0.3739716   0.2243829   0.5235602), wk =   0.0233236
        k(   59) = (  -0.5235602   0.5235602   0.2243829), wk =   0.0116618
        k(   60) = (  -0.5235602   0.2243829  -0.5235602), wk =   0.0116618
        k(   61) = (  -0.5235602  -0.3739716   0.3739716), wk =   0.0233236
        k(   62) = (  -0.3739716  -0.5235602   0.3739716), wk =   0.0233236
        k(   63) = (  -0.5235602   0.5235602   0.3739716), wk =   0.0116618
        k(   64) = (  -0.5235602   0.3739716  -0.5235602), wk =   0.0116618

     Dense  grid:    18349 G-vectors     FFT dimensions: (  36,  36,  36)

     Smooth grid:    10827 G-vectors     FFT dimensions: (  27,  27,  27)

     Estimated max dynamical RAM per process >       7.09Mb

     Estimated total allocated dynamical RAM >      28.34Mb

     Initial potential from superposition of free atoms

     starting charge   11.99084, renormalised to   12.00000
     Starting wfc are   16 randomized atomic wfcs
     Checking if some PAW data can be deallocated... 

     total cpu time spent up to now is        2.1 secs

     per-process dynamical memory:    16.4 Mb

     Self-consistent Calculation

     iteration #  1     ecut=    35.00 Ry     beta=0.30
     Davidson diagonalization with overlap
     ethr =  1.00E-02,  avg # of iterations =  3.3

     Threshold (ethr) on eigenvalues was too large:
     Diagonalizing with lowered threshold

     Davidson diagonalization with overlap
     ethr =  1.90E-04,  avg # of iterations =  3.1

     total cpu time spent up to now is        8.3 secs

     total energy              =    -157.98457231 Ry
     Harris-Foulkes estimate   =    -157.98679660 Ry
     estimated scf accuracy    <       0.02242588 Ry

     iteration #  2     ecut=    35.00 Ry     beta=0.30
     Davidson diagonalization with overlap
     ethr =  1.87E-04,  avg # of iterations =  1.0

     total cpu time spent up to now is       11.3 secs

     total energy              =    -157.98026161 Ry
     Harris-Foulkes estimate   =    -157.98466004 Ry
     estimated scf accuracy    <       0.01391164 Ry

     iteration #  3     ecut=    35.00 Ry     beta=0.30
     Davidson diagonalization with overlap
     ethr =  1.16E-04,  avg # of iterations =  1.1

     total cpu time spent up to now is       14.3 secs

     total energy              =    -157.98046355 Ry
     Harris-Foulkes estimate   =    -157.98045370 Ry
     estimated scf accuracy    <       0.00003588 Ry

     iteration #  4     ecut=    35.00 Ry     beta=0.30
     Davidson diagonalization with overlap
     ethr =  2.99E-07,  avg # of iterations =  4.1

     total cpu time spent up to now is       17.9 secs

     total energy              =    -157.98052964 Ry
     Harris-Foulkes estimate   =    -157.98051151 Ry
     estimated scf accuracy    <       0.00001603 Ry

     iteration #  5     ecut=    35.00 Ry     beta=0.30
     Davidson diagonalization with overlap
     ethr =  1.34E-07,  avg # of iterations =  1.1

     total cpu time spent up to now is       18.8 secs

     total energy              =    -157.98052913 Ry
     Harris-Foulkes estimate   =    -157.98053067 Ry
     estimated scf accuracy    <       0.00000400 Ry

     iteration #  6     ecut=    35.00 Ry     beta=0.30
     Davidson diagonalization with overlap
     ethr =  3.34E-08,  avg # of iterations =  2.1

     total cpu time spent up to now is       19.9 secs

     End of self-consistent calculation

          k = 0.0748 0.0748 0.0748 (  1346 PWs)   bands (ev):

    -2.5438   5.5828   5.5829   5.5829   8.7104   8.7105   8.7105  13.3204
    13.3205  13.3205

          k = 0.0748 0.0748 0.2244 (  1344 PWs)   bands (ev):

    -2.1378   3.3947   5.9556   5.9556   9.0454   9.0454  11.2710  11.2710
    11.5635  13.7078

          k = 0.0748 0.0748 0.3740 (  1349 PWs)   bands (ev):

    -1.3298   1.4550   6.6941   6.6941   9.1549   9.1550  10.0065  10.0065
    12.9394  12.9396

          k = 0.0748 0.0748-0.5236 (  1354 PWs)   bands (ev):

    -0.1280  -0.1277   7.6137   7.6139   8.0160   8.0163  10.4157  10.4159
    12.0455  12.0458

          k = 0.0748 0.2244 0.2244 (  1346 PWs)   bands (ev):

    -1.7331   3.7797   3.7797   6.3216   8.8170   9.8775  11.3892  11.3893
    12.1203  12.1203

          k = 0.0748 0.2244 0.3740 (  1341 PWs)   bands (ev):

    -0.9278   1.8476   4.5445   6.8837   7.3956   9.7026  10.3836  12.2783
    12.2932  13.6983

          k = 0.0748 0.2244-0.5236 (  1348 PWs)   bands (ev):

     0.2701   0.2703   5.6726   5.6728   8.2402   8.2405  11.4049  11.4052
    13.4219  13.4222

          k = 0.0748 0.3740 0.3740 (  1350 PWs)   bands (ev):

    -0.1277   2.6286   2.6286   5.3041   7.8746  10.4645  10.4646  11.1397
    13.0698  13.6477

          k = 0.0748 0.3740-0.5236 (  1352 PWs)   bands (ev):

     1.0622   1.0624   3.7883   3.7885   8.9831   8.9834  11.5859  11.5862
    12.2486  12.2488

          k = 0.0748-0.5236-0.5236 (  1356 PWs)   bands (ev):

     2.2399   2.2400   2.2402   2.2403  10.1011  10.1013  10.1015  10.1015
    13.3831  13.3832

          k = 0.2244 0.2244 0.2244 (  1346 PWs)   bands (ev):

    -1.3298   4.1619   4.1619   4.1619   9.4607   9.4609   9.4609  12.4442
    12.4442  12.4442

          k = 0.2244 0.2244 0.3740 (  1352 PWs)   bands (ev):

    -0.5271   2.2387   4.9148   4.9149   7.6446   7.6448  10.2398  12.8569
    13.1264  13.1264

          k = 0.2244 0.2244-0.5236 (  1348 PWs)   bands (ev):

     0.6668   0.6671   5.7832   5.7834   6.4140   6.4143  11.3698  11.3701
    13.7593  13.7595

          k = 0.2244 0.3740 0.3740 (  1356 PWs)   bands (ev):

     0.2704   3.0158   3.0158   5.4112   6.0443   8.3966   8.3967  11.0220
    13.9163  16.0046

          k = 0.2244 0.3740-0.5236 (  1354 PWs)   bands (ev):

     1.4562   1.4564   4.1625   4.1628   6.9043   6.9046   9.5269   9.5272
    14.9783  14.9785

          k = 0.2244-0.5236-0.5236 (  1356 PWs)   bands (ev):

     2.6287   2.6288   2.6290   2.6291   8.0273   8.0274   8.0276   8.0276
    16.1087  16.1089

          k = 0.3740 0.3740 0.3740 (  1361 PWs)   bands (ev):

     1.0624   3.7790   3.7790   3.7790   6.5412   6.5413   6.5413   9.1741
    17.1237  17.1238

          k = 0.3740 0.3740-0.5236 (  1360 PWs)   bands (ev):

     2.2392   2.2394   4.6661   4.6664   5.2848   5.2852   7.6689   7.6692
    17.8399  17.8401

          k = 0.3740-0.5236-0.5236 (  1360 PWs)   bands (ev):

     3.3956   3.3957   3.3959   3.3960   6.1637   6.1639   6.1640   6.1640
    19.1957  19.1960

          k =-0.5236-0.5236-0.5236 (  1376 PWs)   bands (ev):

     4.2933   4.2934   4.2934   4.2937   4.8953   4.8957   4.8957   4.8959
    22.5171  22.5175

          k = 0.2244-0.0748 0.0748 (  1344 PWs)   bands (ev):

    -2.1378   3.3947   5.9556   5.9556   9.0454   9.0454  11.2710  11.2710
    11.5635  13.7078

          k =-0.0748 0.2244 0.0748 (  1344 PWs)   bands (ev):

    -2.1378   3.3947   5.9556   5.9556   9.0454   9.0454  11.2710  11.2710
    11.5635  13.7078

          k = 0.3740-0.0748 0.0748 (  1349 PWs)   bands (ev):

    -1.3298   1.4550   6.6941   6.6941   9.1549   9.1550  10.0065  10.0065
    12.9394  12.9396

          k =-0.0748 0.3740 0.0748 (  1349 PWs)   bands (ev):

    -1.3298   1.4550   6.6941   6.6941   9.1549   9.1550  10.0065  10.0065
    12.9394  12.9396

          k =-0.5236-0.0748 0.0748 (  1354 PWs)   bands (ev):

    -0.1280  -0.1278   7.6137   7.6139   8.0160   8.0163  10.4157  10.4158
    12.0455  12.0458

          k =-0.0748-0.5236 0.0748 (  1354 PWs)   bands (ev):

    -0.1279  -0.1278   7.6138   7.6138   8.0161   8.0162  10.4158  10.4158
    12.0456  12.0457

          k = 0.2244-0.2244 0.0748 (  1346 PWs)   bands (ev):

    -1.7331   3.7797   3.7797   6.3216   8.8170   9.8775  11.3892  11.3893
    12.1203  12.1203

          k = 0.2244 0.0748 0.2244 (  1346 PWs)   bands (ev):

    -1.7331   3.7797   3.7797   6.3216   8.8170   9.8775  11.3892  11.3893
    12.1203  12.1203

          k = 0.3740-0.2244 0.0748 (  1341 PWs)   bands (ev):

    -0.9278   1.8476   4.5445   6.8837   7.3956   9.7026  10.3836  12.2783
    12.2932  13.6983

          k =-0.0748 0.3740 0.2244 (  1341 PWs)   bands (ev):

    -0.9278   1.8476   4.5445   6.8837   7.3956   9.7026  10.3836  12.2783
    12.2932  13.6983

          k = 0.2244 0.3740 0.0748 (  1341 PWs)   bands (ev):

    -0.9278   1.8476   4.5445   6.8837   7.3956   9.7026  10.3836  12.2783
    12.2932  13.6983

          k = 0.3740 0.0748 0.2244 (  1341 PWs)   bands (ev):

    -0.9278   1.8476   4.5445   6.8837   7.3956   9.7026  10.3836  12.2783
    12.2932  13.6983

          k = 0.2244 0.0748-0.3740 (  1341 PWs)   bands (ev):

    -0.9278   1.8476   4.5445   6.8837   7.3956   9.7026  10.3836  12.2783
    12.2932  13.6983

          k =-0.5236-0.2244 0.0748 (  1348 PWs)   bands (ev):

     0.2701   0.2703   5.6726   5.6728   8.2403   8.2405  11.4050  11.4051
    13.4219  13.4222

          k =-0.0748-0.5236 0.2244 (  1348 PWs)   bands (ev):

     0.2701   0.2702   5.6727   5.6728   8.2403   8.2405  11.4050  11.4051
    13.4220  13.4224

          k = 0.2244-0.5236 0.0748 (  1348 PWs)   bands (ev):

     0.2701   0.2702   5.6727   5.6728   8.2403   8.2405  11.4050  11.4051
    13.4220  13.4221

          k =-0.5236 0.0748 0.2244 (  1348 PWs)   bands (ev):

     0.2701   0.2703   5.6726   5.6728   8.2403   8.2405  11.4050  11.4051
    13.4220  13.4224

          k = 0.2244 0.0748 0.5236 (  1348 PWs)   bands (ev):

     0.2701   0.2703   5.6726   5.6728   8.2403   8.2405  11.4049  11.4051
    13.4219  13.4222

          k = 0.3740-0.3740 0.0748 (  1350 PWs)   bands (ev):

    -0.1277   2.6286   2.6286   5.3041   7.8746  10.4645  10.4646  11.1397
    13.0697  13.6477

          k = 0.3740 0.0748 0.3740 (  1350 PWs)   bands (ev):

    -0.1277   2.6286   2.6286   5.3041   7.8746  10.4646  10.4646  11.1397
    13.0697  13.6477

          k =-0.5236-0.3740 0.0748 (  1352 PWs)   bands (ev):

     1.0622   1.0624   3.7883   3.7885   8.9831   8.9833  11.5859  11.5861
    12.2486  12.2488

          k =-0.0748-0.5236 0.3740 (  1352 PWs)   bands (ev):

     1.0623   1.0624   3.7883   3.7884   8.9832   8.9833  11.5860  11.5861
    12.2486  12.2487

          k = 0.3740-0.5236 0.0748 (  1352 PWs)   bands (ev):

     1.0623   1.0624   3.7883   3.7884   8.9832   8.9833  11.5859  11.5861
    12.2486  12.2487

          k =-0.5236 0.0748 0.3740 (  1352 PWs)   bands (ev):

     1.0622   1.0624   3.7883   3.7885   8.9831   8.9833  11.5859  11.5861
    12.2486  12.2488

          k = 0.3740 0.0748 0.5236 (  1352 PWs)   bands (ev):

     1.0622   1.0624   3.7883   3.7885   8.9831   8.9834  11.5859  11.5862
    12.2486  12.2488

          k =-0.5236 0.5236 0.0748 (  1356 PWs)   bands (ev):

     2.2400   2.2401   2.2402   2.2403  10.1011  10.1013  10.1014  10.1014
    13.3831  13.3831

          k =-0.5236 0.0748-0.5236 (  1356 PWs)   bands (ev):

     2.2399   2.2401   2.2401   2.2403  10.1010  10.1013  10.1014  10.1015
    13.3830  13.3833

          k = 0.3740-0.2244 0.2244 (  1352 PWs)   bands (ev):

    -0.5271   2.2387   4.9149   4.9149   7.6446   7.6447  10.2398  12.8569
    13.1264  13.1264

          k =-0.2244 0.3740 0.2244 (  1352 PWs)   bands (ev):

    -0.5271   2.2387   4.9149   4.9149   7.6447   7.6447  10.2398  12.8569
    13.1264  13.1264

          k =-0.5236-0.2244 0.2244 (  1348 PWs)   bands (ev):

     0.6668   0.6670   5.7832   5.7834   6.4141   6.4143  11.3698  11.3700
    13.7593  13.7594

          k =-0.2244-0.5236 0.2244 (  1348 PWs)   bands (ev):

     0.6669   0.6670   5.7833   5.7834   6.4141   6.4142  11.3699  11.3700
    13.7593  13.7594

          k = 0.3740-0.3740 0.2244 (  1356 PWs)   bands (ev):

     0.2704   3.0158   3.0158   5.4112   6.0443   8.3966   8.3967  11.0220
    13.9163  16.0046

          k = 0.3740 0.2244 0.3740 (  1356 PWs)   bands (ev):

     0.2704   3.0158   3.0158   5.4112   6.0443   8.3966   8.3967  11.0220
    13.9163  16.0046

          k =-0.5236-0.3740 0.2244 (  1354 PWs)   bands (ev):

     1.4562   1.4564   4.1626   4.1628   6.9044   6.9046   9.5270   9.5272
    14.9783  14.9785

          k =-0.2244-0.5236 0.3740 (  1354 PWs)   bands (ev):

     1.4562   1.4563   4.1626   4.1627   6.9044   6.9045   9.5270   9.5271
    14.9784  14.9785

          k = 0.3740-0.5236 0.2244 (  1354 PWs)   bands (ev):

     1.4562   1.4563   4.1626   4.1627   6.9044   6.9045   9.5270   9.5271
    14.9784  14.9785

          k =-0.5236 0.2244 0.3740 (  1354 PWs)   bands (ev):

     1.4562   1.4564   4.1626   4.1628   6.9044   6.9046   9.5270   9.5272
    14.9783  14.9785

          k = 0.3740 0.2244 0.5236 (  1354 PWs)   bands (ev):

     1.4562   1.4564   4.1625   4.1628   6.9043   6.9046   9.5269   9.5272
    14.9783  14.9785

          k =-0.5236 0.5236 0.2244 (  1356 PWs)   bands (ev):

     2.6288   2.6289   2.6290   2.6291   8.0273   8.0275   8.0276   8.0276
    16.1087  16.1088

          k =-0.5236 0.2244-0.5236 (  1356 PWs)   bands (ev):

     2.6287   2.6289   2.6289   2.6291   8.0272   8.0275   8.0275   8.0277
    16.1088  16.1089

          k =-0.5236-0.3740 0.3740 (  1360 PWs)   bands (ev):

     2.2392   2.2394   4.6662   4.6663   5.2849   5.2851   7.6690   7.6692
    17.8399  17.8400

          k =-0.3740-0.5236 0.3740 (  1360 PWs)   bands (ev):

     2.2392   2.2393   4.6662   4.6663   5.2849   5.2851   7.6690   7.6691
    17.8399  17.8400

          k =-0.5236 0.5236 0.3740 (  1360 PWs)   bands (ev):

     3.3957   3.3957   3.3958   3.3959   6.1637   6.1639   6.1640   6.1640
    19.1958  19.1960

          k =-0.5236 0.3740-0.5236 (  1360 PWs)   bands (ev):

     3.3956   3.3958   3.3958   3.3960   6.1636   6.1639   6.1640   6.1641
    19.1957  19.1960

     the Fermi energy is     9.4180 ev

!    total energy              =    -157.98052970 Ry
     Harris-Foulkes estimate   =    -157.98052995 Ry
     estimated scf accuracy    <       0.00000015 Ry

     total all-electron energy =     -1942.551657 Ry

     The total energy is the sum of the following terms:

     one-electron contribution =      14.11957886 Ry
     hartree contribution      =       0.03111520 Ry
     xc contribution           =     -10.68544811 Ry
     ewald contribution        =     -22.68007620 Ry
     one-center paw contrib.   =    -138.76702421 Ry
     smearing contrib. (-TS)   =       0.00132476 Ry

     convergence has been achieved in   6 iterations

     Forces acting on atoms (Ry/au):

     atom    1 type  1   force =     0.00000000    0.00000000    0.00000000
     atom    2 type  2   force =     0.00000000    0.00000000    0.00000000
     atom    3 type  3   force =     0.00000000    0.00000000    0.00000000
     atom    4 type  4   force =     0.00000000    0.00000000    0.00000000

     Total force =     0.000000     Total SCF correction =     0.000000


     entering subroutine stress ...

          total   stress  (Ry/bohr**3)                   (kbar)     P=  150.16
   0.00102077   0.00000000   0.00000000        150.16      0.00      0.00
   0.00000000   0.00102077   0.00000000          0.00    150.16      0.00
   0.00000000   0.00000000   0.00102077          0.00      0.00    150.16


     Writing output data file template.save

     init_run     :      1.03s CPU      1.05s WALL (       1 calls)
     electrons    :     17.13s CPU     17.78s WALL (       1 calls)
     forces       :      0.19s CPU      0.19s WALL (       1 calls)
     stress       :      0.42s CPU      0.43s WALL (       1 calls)

     Called by init_run:
     wfcinit      :      0.51s CPU      0.51s WALL (       1 calls)
     potinit      :      0.11s CPU      0.11s WALL (       1 calls)

     Called by electrons:
     c_bands      :     13.37s CPU     13.91s WALL (       7 calls)
     sum_band     :      2.63s CPU      2.70s WALL (       7 calls)
     v_of_rho     :      0.15s CPU      0.15s WALL (       7 calls)
     newd         :      0.15s CPU      0.17s WALL (       7 calls)
     PAW_pot      :      0.89s CPU      0.91s WALL (       7 calls)
     mix_rho      :      0.02s CPU      0.02s WALL (       7 calls)

     Called by c_bands:
     init_us_2    :      0.37s CPU      0.42s WALL (    1088 calls)
     cegterg      :     12.88s CPU     13.35s WALL (     448 calls)

     Called by sum_band:
     sum_band:bec :      0.02s CPU      0.01s WALL (     448 calls)
     addusdens    :      0.19s CPU      0.19s WALL (       7 calls)

     Called by *egterg:
     h_psi        :     11.02s CPU     11.44s WALL (    1526 calls)
     s_psi        :      0.29s CPU      0.32s WALL (    1526 calls)
     g_psi        :      0.04s CPU      0.04s WALL (    1014 calls)
     cdiaghg      :      0.69s CPU      0.69s WALL (    1398 calls)

     Called by h_psi:
     h_psi:pot    :     11.00s CPU     11.40s WALL (    1526 calls)
     h_psi:calbec :      0.47s CPU      0.46s WALL (    1526 calls)
     vloc_psi     :     10.20s CPU     10.59s WALL (    1526 calls)
     add_vuspsi   :      0.31s CPU      0.34s WALL (    1526 calls)

     General routines
     calbec       :      0.68s CPU      0.69s WALL (    2294 calls)
     fft          :      0.12s CPU      0.15s WALL (     137 calls)
     ffts         :      0.00s CPU      0.01s WALL (      14 calls)
     fftw         :     11.27s CPU     11.73s WALL (   29434 calls)
     interpolate  :      0.02s CPU      0.03s WALL (      14 calls)
     davcio       :      0.00s CPU      0.00s WALL (      64 calls)

     Parallel routines
     fft_scatter  :      3.15s CPU      3.30s WALL (   29585 calls)

     PWSCF        :    19.94s CPU        20.74s WALL


   This run was terminated on:  13:35:23   9Jun2017            

=------------------------------------------------------------------------------=
   JOB DONE.
=------------------------------------------------------------------------------=
