
     Program PWSCF v.6.0 (svn rev. 13079) starts on  9Jun2017 at 13:35:38 

     This program is part of the open-source Quantum ESPRESSO suite
     for quantum simulation of materials; please cite
         "P. Giannozzi et al., J. Phys.:Condens. Matter 21 395502 (2009);
          URL http://www.quantum-espresso.org", 
     in publications or presentations arising from this work. More details at
     http://www.quantum-espresso.org/quote

     Parallel version (MPI), running on     4 processors
     R & G space division:  proc/nbgrp/npool/nimage =       4
     Waiting for input...
     Reading input from standard input
Warning: card &IONS ignored
Warning: card ION_DYNAMICS='BFGS', ignored
Warning: card / ignored
Warning: card &CELL ignored
Warning: card CELL_DYNAMICS='BFGS', ignored
Warning: card PRESS = 0.0, ignored
Warning: card CELL_FACTOR = 2.0, ignored
Warning: card / ignored

     Current dimensions of program PWSCF are:
     Max number of different atomic species (ntypx) = 10
     Max number of k-points (npk) =  40000
     Max angular momentum in pseudopotentials (lmaxx) =  3
               file Al.pbe-nl-kjpaw_psl.1.0.0.UPF: wavefunction(s)  3S 3P renormalized
               file Al.pbe-nl-kjpaw_psl.1.0.0.UPF: wavefunction(s)  3S 3P renormalized
               file Al.pbe-nl-kjpaw_psl.1.0.0.UPF: wavefunction(s)  3S 3P renormalized
               file Al.pbe-nl-kjpaw_psl.1.0.0.UPF: wavefunction(s)  3S 3P renormalized

     Subspace diagonalization in iterative solution of the eigenvalue problem:
     a serial algorithm will be used


     Parallelization info
     --------------------
     sticks:   dense  smooth     PW     G-vecs:    dense   smooth      PW
     Min         214     148     46                 4736     2766     482
     Max         216     149     47                 4738     2769     485
     Sum         861     593    185                18949    11067    1935



     bravais-lattice index     =            0
     lattice parameter (alat)  =       7.6205  a.u.
     unit-cell volume          =     397.6716 (a.u.)^3
     number of atoms/cell      =            4
     number of atomic types    =            4
     number of electrons       =        12.00
     number of Kohn-Sham states=           10
     kinetic-energy cutoff     =      35.0000  Ry
     charge density cutoff     =     200.0000  Ry
     convergence threshold     =      1.0E-06
     mixing beta               =       0.3000
     number of iterations used =           10  TF        mixing
     Exchange-correlation      =  SLA  PW   PBX  PBC ( 1  4  3  4 0 0)

     celldm(1)=   7.620455  celldm(2)=   0.000000  celldm(3)=   0.000000
     celldm(4)=   0.000000  celldm(5)=   0.000000  celldm(6)=   0.000000

     crystal axes: (cart. coord. in units of alat)
               a(1) = (   0.965000   0.000000   0.000000 )  
               a(2) = (   0.000000   0.965000   0.000000 )  
               a(3) = (   0.000000   0.000000   0.965000 )  

     reciprocal axes: (cart. coord. in units 2 pi/alat)
               b(1) = (  1.036269  0.000000  0.000000 )  
               b(2) = (  0.000000  1.036269  0.000000 )  
               b(3) = (  0.000000  0.000000  1.036269 )  


     PseudoPot. # 1 for Al read from file:
     /home/ben/espresso/pp/Al.pbe-nl-kjpaw_psl.1.0.0.UPF
     MD5 check sum: 339dbea23cf3ab9a065ad45c0f9085d7
     Pseudo is Projector augmented-wave + core cor, Zval =  3.0
     Generated using "atomic" code by A. Dal Corso  v.5.1
     Shape of augmentation charge: PSQ
     Using radial grid of 1135 points,  4 beta functions with: 
                l(1) =   0
                l(2) =   0
                l(3) =   1
                l(4) =   1
     Q(r) pseudized with 0 coefficients 


     PseudoPot. # 2 for Al read from file:
     /home/ben/espresso/pp/Al.pbe-nl-kjpaw_psl.1.0.0.UPF
     MD5 check sum: 339dbea23cf3ab9a065ad45c0f9085d7
     Pseudo is Projector augmented-wave + core cor, Zval =  3.0
     Generated using "atomic" code by A. Dal Corso  v.5.1
     Shape of augmentation charge: PSQ
     Using radial grid of 1135 points,  4 beta functions with: 
                l(1) =   0
                l(2) =   0
                l(3) =   1
                l(4) =   1
     Q(r) pseudized with 0 coefficients 


     PseudoPot. # 3 for Al read from file:
     /home/ben/espresso/pp/Al.pbe-nl-kjpaw_psl.1.0.0.UPF
     MD5 check sum: 339dbea23cf3ab9a065ad45c0f9085d7
     Pseudo is Projector augmented-wave + core cor, Zval =  3.0
     Generated using "atomic" code by A. Dal Corso  v.5.1
     Shape of augmentation charge: PSQ
     Using radial grid of 1135 points,  4 beta functions with: 
                l(1) =   0
                l(2) =   0
                l(3) =   1
                l(4) =   1
     Q(r) pseudized with 0 coefficients 


     PseudoPot. # 4 for Al read from file:
     /home/ben/espresso/pp/Al.pbe-nl-kjpaw_psl.1.0.0.UPF
     MD5 check sum: 339dbea23cf3ab9a065ad45c0f9085d7
     Pseudo is Projector augmented-wave + core cor, Zval =  3.0
     Generated using "atomic" code by A. Dal Corso  v.5.1
     Shape of augmentation charge: PSQ
     Using radial grid of 1135 points,  4 beta functions with: 
                l(1) =   0
                l(2) =   0
                l(3) =   1
                l(4) =   1
     Q(r) pseudized with 0 coefficients 


     atomic species   valence    mass     pseudopotential
        Al1            3.00    26.98200     Al( 1.00)
        Al2            3.00    26.98200     Al( 1.00)
        Al3            3.00    26.98200     Al( 1.00)
        Al4            3.00    26.98200     Al( 1.00)

      8 Sym. Ops., with inversion, found



   Cartesian axes

     site n.     atom                  positions (alat units)
         1           Al1 tau(   1) = (   0.0000000   0.0000000   0.0000000  )
         2           Al2 tau(   2) = (   0.4825000   0.4825000   0.0000000  )
         3           Al3 tau(   3) = (   0.4825000   0.0000000   0.4825000  )
         4           Al4 tau(   4) = (   0.0000000   0.4825000   0.4825000  )

     number of k points=    64  Marzari-Vanderbilt smearing, width (Ry)=  0.0200
                       cart. coord. in units 2pi/alat
        k(    1) = (   0.0740192   0.0740192   0.0740192), wk =   0.0466472
        k(    2) = (   0.0740192   0.0740192   0.2220577), wk =   0.0466472
        k(    3) = (   0.0740192   0.0740192   0.3700962), wk =   0.0466472
        k(    4) = (   0.0740192   0.0740192  -0.5181347), wk =   0.0233236
        k(    5) = (   0.0740192   0.2220577   0.2220577), wk =   0.0466472
        k(    6) = (   0.0740192   0.2220577   0.3700962), wk =   0.0466472
        k(    7) = (   0.0740192   0.2220577  -0.5181347), wk =   0.0233236
        k(    8) = (   0.0740192   0.3700962   0.3700962), wk =   0.0466472
        k(    9) = (   0.0740192   0.3700962  -0.5181347), wk =   0.0233236
        k(   10) = (   0.0740192  -0.5181347  -0.5181347), wk =   0.0116618
        k(   11) = (   0.2220577   0.2220577   0.2220577), wk =   0.0466472
        k(   12) = (   0.2220577   0.2220577   0.3700962), wk =   0.0466472
        k(   13) = (   0.2220577   0.2220577  -0.5181347), wk =   0.0233236
        k(   14) = (   0.2220577   0.3700962   0.3700962), wk =   0.0466472
        k(   15) = (   0.2220577   0.3700962  -0.5181347), wk =   0.0233236
        k(   16) = (   0.2220577  -0.5181347  -0.5181347), wk =   0.0116618
        k(   17) = (   0.3700962   0.3700962   0.3700962), wk =   0.0466472
        k(   18) = (   0.3700962   0.3700962  -0.5181347), wk =   0.0233236
        k(   19) = (   0.3700962  -0.5181347  -0.5181347), wk =   0.0116618
        k(   20) = (  -0.5181347  -0.5181347  -0.5181347), wk =   0.0058309
        k(   21) = (   0.2220577  -0.0740192   0.0740192), wk =   0.0466472
        k(   22) = (  -0.0740192   0.2220577   0.0740192), wk =   0.0466472
        k(   23) = (   0.3700962  -0.0740192   0.0740192), wk =   0.0466472
        k(   24) = (  -0.0740192   0.3700962   0.0740192), wk =   0.0466472
        k(   25) = (  -0.5181347  -0.0740192   0.0740192), wk =   0.0233236
        k(   26) = (  -0.0740192  -0.5181347   0.0740192), wk =   0.0233236
        k(   27) = (   0.2220577  -0.2220577   0.0740192), wk =   0.0466472
        k(   28) = (   0.2220577   0.0740192   0.2220577), wk =   0.0466472
        k(   29) = (   0.3700962  -0.2220577   0.0740192), wk =   0.0466472
        k(   30) = (  -0.0740192   0.3700962   0.2220577), wk =   0.0466472
        k(   31) = (   0.2220577   0.3700962   0.0740192), wk =   0.0466472
        k(   32) = (   0.3700962   0.0740192   0.2220577), wk =   0.0466472
        k(   33) = (   0.2220577   0.0740192  -0.3700962), wk =   0.0466472
        k(   34) = (  -0.5181347  -0.2220577   0.0740192), wk =   0.0233236
        k(   35) = (  -0.0740192  -0.5181347   0.2220577), wk =   0.0233236
        k(   36) = (   0.2220577  -0.5181347   0.0740192), wk =   0.0233236
        k(   37) = (  -0.5181347   0.0740192   0.2220577), wk =   0.0233236
        k(   38) = (   0.2220577   0.0740192   0.5181347), wk =   0.0233236
        k(   39) = (   0.3700962  -0.3700962   0.0740192), wk =   0.0466472
        k(   40) = (   0.3700962   0.0740192   0.3700962), wk =   0.0466472
        k(   41) = (  -0.5181347  -0.3700962   0.0740192), wk =   0.0233236
        k(   42) = (  -0.0740192  -0.5181347   0.3700962), wk =   0.0233236
        k(   43) = (   0.3700962  -0.5181347   0.0740192), wk =   0.0233236
        k(   44) = (  -0.5181347   0.0740192   0.3700962), wk =   0.0233236
        k(   45) = (   0.3700962   0.0740192   0.5181347), wk =   0.0233236
        k(   46) = (  -0.5181347   0.5181347   0.0740192), wk =   0.0116618
        k(   47) = (  -0.5181347   0.0740192  -0.5181347), wk =   0.0116618
        k(   48) = (   0.3700962  -0.2220577   0.2220577), wk =   0.0466472
        k(   49) = (  -0.2220577   0.3700962   0.2220577), wk =   0.0466472
        k(   50) = (  -0.5181347  -0.2220577   0.2220577), wk =   0.0233236
        k(   51) = (  -0.2220577  -0.5181347   0.2220577), wk =   0.0233236
        k(   52) = (   0.3700962  -0.3700962   0.2220577), wk =   0.0466472
        k(   53) = (   0.3700962   0.2220577   0.3700962), wk =   0.0466472
        k(   54) = (  -0.5181347  -0.3700962   0.2220577), wk =   0.0233236
        k(   55) = (  -0.2220577  -0.5181347   0.3700962), wk =   0.0233236
        k(   56) = (   0.3700962  -0.5181347   0.2220577), wk =   0.0233236
        k(   57) = (  -0.5181347   0.2220577   0.3700962), wk =   0.0233236
        k(   58) = (   0.3700962   0.2220577   0.5181347), wk =   0.0233236
        k(   59) = (  -0.5181347   0.5181347   0.2220577), wk =   0.0116618
        k(   60) = (  -0.5181347   0.2220577  -0.5181347), wk =   0.0116618
        k(   61) = (  -0.5181347  -0.3700962   0.3700962), wk =   0.0233236
        k(   62) = (  -0.3700962  -0.5181347   0.3700962), wk =   0.0233236
        k(   63) = (  -0.5181347   0.5181347   0.3700962), wk =   0.0116618
        k(   64) = (  -0.5181347   0.3700962  -0.5181347), wk =   0.0116618

     Dense  grid:    18949 G-vectors     FFT dimensions: (  36,  36,  36)

     Smooth grid:    11067 G-vectors     FFT dimensions: (  27,  27,  27)

     Estimated max dynamical RAM per process >       7.28Mb

     Estimated total allocated dynamical RAM >      29.11Mb

     Initial potential from superposition of free atoms

     starting charge   11.99084, renormalised to   12.00000
     Starting wfc are   16 randomized atomic wfcs
     Checking if some PAW data can be deallocated... 

     total cpu time spent up to now is        6.5 secs

     per-process dynamical memory:    16.6 Mb

     Self-consistent Calculation

     iteration #  1     ecut=    35.00 Ry     beta=0.30
     Davidson diagonalization with overlap
     ethr =  1.00E-02,  avg # of iterations =  3.4

     Threshold (ethr) on eigenvalues was too large:
     Diagonalizing with lowered threshold

     Davidson diagonalization with overlap
     ethr =  1.93E-04,  avg # of iterations =  3.1

     total cpu time spent up to now is        9.1 secs

     total energy              =    -157.99529282 Ry
     Harris-Foulkes estimate   =    -157.99747445 Ry
     estimated scf accuracy    <       0.02259200 Ry

     iteration #  2     ecut=    35.00 Ry     beta=0.30
     Davidson diagonalization with overlap
     ethr =  1.88E-04,  avg # of iterations =  1.0

     total cpu time spent up to now is       10.0 secs

     total energy              =    -157.99097002 Ry
     Harris-Foulkes estimate   =    -157.99538384 Ry
     estimated scf accuracy    <       0.01402851 Ry

     iteration #  3     ecut=    35.00 Ry     beta=0.30
     Davidson diagonalization with overlap
     ethr =  1.17E-04,  avg # of iterations =  1.0

     total cpu time spent up to now is       10.8 secs

     total energy              =    -157.99118770 Ry
     Harris-Foulkes estimate   =    -157.99117513 Ry
     estimated scf accuracy    <       0.00003607 Ry

     iteration #  4     ecut=    35.00 Ry     beta=0.30
     Davidson diagonalization with overlap
     ethr =  3.01E-07,  avg # of iterations =  4.2

     total cpu time spent up to now is       12.2 secs

     total energy              =    -157.99125840 Ry
     Harris-Foulkes estimate   =    -157.99123911 Ry
     estimated scf accuracy    <       0.00001645 Ry

     iteration #  5     ecut=    35.00 Ry     beta=0.30
     Davidson diagonalization with overlap
     ethr =  1.37E-07,  avg # of iterations =  1.2

     total cpu time spent up to now is       13.1 secs

     total energy              =    -157.99125738 Ry
     Harris-Foulkes estimate   =    -157.99125934 Ry
     estimated scf accuracy    <       0.00000468 Ry

     iteration #  6     ecut=    35.00 Ry     beta=0.30
     Davidson diagonalization with overlap
     ethr =  3.90E-08,  avg # of iterations =  2.1

     total cpu time spent up to now is       14.2 secs

     End of self-consistent calculation

          k = 0.0740 0.0740 0.0740 (  1367 PWs)   bands (ev):

    -2.6716   5.3070   5.3070   5.3070   8.3679   8.3679   8.3680  12.9165
    12.9166  12.9166

          k = 0.0740 0.0740 0.2221 (  1377 PWs)   bands (ev):

    -2.2738   3.1539   5.6742   5.6742   8.7060   8.7060  10.8840  10.8840
    11.1808  13.2940

          k = 0.0740 0.0740 0.3701 (  1385 PWs)   bands (ev):

    -1.4820   1.2492   6.4025   6.4025   8.8405   8.8406   9.6268   9.6269
    12.4311  12.4314

          k = 0.0740 0.0740-0.5181 (  1400 PWs)   bands (ev):

    -0.3037  -0.3034   7.3251   7.3253   7.6849   7.6853  10.0897  10.0898
    11.5073  11.5077

          k = 0.0740 0.2221 0.2221 (  1392 PWs)   bands (ev):

    -1.8773   3.5323   3.5324   6.0359   8.5128   9.4607  11.0338  11.0339
    11.7071  11.7072

          k = 0.0740 0.2221 0.3701 (  1391 PWs)   bands (ev):

    -1.0879   1.6347   4.2848   6.6093   7.0667   9.3567   9.9858  11.9029
    11.9147  13.1500

          k = 0.0740 0.2221-0.5181 (  1386 PWs)   bands (ev):

     0.0867   0.0870   5.3970   5.3973   7.9140   7.9144  11.0102  11.0104
    13.0086  13.0089

          k = 0.0740 0.3701 0.3701 (  1386 PWs)   bands (ev):

    -0.3034   2.4017   2.4018   5.0348   7.5531  10.1026  10.1027  10.7280
    12.6608  13.2080

          k = 0.0740 0.3701-0.5181 (  1396 PWs)   bands (ev):

     0.8639   0.8642   3.5416   3.5419   8.6450   8.6453  11.2034  11.2037
    11.8201  11.8204

          k = 0.0740-0.5181-0.5181 (  1392 PWs)   bands (ev):

     2.0201   2.0202   2.0204   2.0205   9.7440   9.7442   9.7444   9.7444
    12.9297  12.9298

          k = 0.2221 0.2221 0.2221 (  1391 PWs)   bands (ev):

    -1.4820   3.9086   3.9086   3.9086   9.1144   9.1145   9.1146  12.0231
    12.0231  12.0231

          k = 0.2221 0.2221 0.3701 (  1402 PWs)   bands (ev):

    -0.6950   2.0188   4.6515   4.6515   7.3203   7.3204   9.8744  12.4426
    12.7045  12.7045

          k = 0.2221 0.2221-0.5181 (  1390 PWs)   bands (ev):

     0.4760   0.4762   5.5311   5.5313   6.0832   6.0836  10.9827  10.9830
    13.3659  13.3661

          k = 0.2221 0.3701 0.3701 (  1393 PWs)   bands (ev):

     0.0871   2.7825   2.7825   5.1659   5.7180   8.0598   8.0599  10.6389
    13.4701  15.5661

          k = 0.2221 0.3701-0.5181 (  1396 PWs)   bands (ev):

     1.2507   1.2509   3.9120   3.9123   6.5896   6.5899   9.1701   9.1704
    14.5194  14.5196

          k = 0.2221-0.5181-0.5181 (  1400 PWs)   bands (ev):

     2.4024   2.4025   2.4027   2.4028   7.6957   7.6959   7.6961   7.6961
    15.6191  15.6194

          k = 0.3701 0.3701 0.3701 (  1412 PWs)   bands (ev):

     0.8643   3.5350   3.5350   3.5350   6.2317   6.2318   6.2319   8.8217
    16.6323  16.6324

          k = 0.3701 0.3701-0.5181 (  1402 PWs)   bands (ev):

     2.0198   2.0201   4.4342   4.4344   4.9691   4.9695   7.3423   7.3426
    17.3643  17.3645

          k = 0.3701-0.5181-0.5181 (  1388 PWs)   bands (ev):

     3.1582   3.1583   3.1584   3.1585   5.8603   5.8605   5.8607   5.8608
    18.6595  18.6597

          k =-0.5181-0.5181-0.5181 (  1376 PWs)   bands (ev):

     4.0679   4.0680   4.0681   4.0683   4.5860   4.5864   4.5865   4.5866
    21.7894  21.7897

          k = 0.2221-0.0740 0.0740 (  1377 PWs)   bands (ev):

    -2.2738   3.1539   5.6742   5.6742   8.7060   8.7060  10.8840  10.8840
    11.1808  13.2940

          k =-0.0740 0.2221 0.0740 (  1377 PWs)   bands (ev):

    -2.2738   3.1539   5.6742   5.6742   8.7060   8.7060  10.8840  10.8840
    11.1808  13.2940

          k = 0.3701-0.0740 0.0740 (  1385 PWs)   bands (ev):

    -1.4820   1.2492   6.4025   6.4025   8.8405   8.8406   9.6268   9.6269
    12.4311  12.4314

          k =-0.0740 0.3701 0.0740 (  1385 PWs)   bands (ev):

    -1.4820   1.2492   6.4025   6.4025   8.8405   8.8405   9.6268   9.6269
    12.4312  12.4313

          k =-0.5181-0.0740 0.0740 (  1400 PWs)   bands (ev):

    -0.3037  -0.3035   7.3251   7.3253   7.6850   7.6853  10.0897  10.0898
    11.5073  11.5077

          k =-0.0740-0.5181 0.0740 (  1400 PWs)   bands (ev):

    -0.3036  -0.3035   7.3252   7.3253   7.6851   7.6852  10.0897  10.0898
    11.5074  11.5076

          k = 0.2221-0.2221 0.0740 (  1392 PWs)   bands (ev):

    -1.8773   3.5323   3.5324   6.0359   8.5128   9.4607  11.0338  11.0339
    11.7071  11.7072

          k = 0.2221 0.0740 0.2221 (  1392 PWs)   bands (ev):

    -1.8773   3.5323   3.5324   6.0359   8.5128   9.4607  11.0338  11.0339
    11.7071  11.7072

          k = 0.3701-0.2221 0.0740 (  1391 PWs)   bands (ev):

    -1.0879   1.6347   4.2848   6.6093   7.0667   9.3567   9.9858  11.9029
    11.9147  13.1500

          k =-0.0740 0.3701 0.2221 (  1391 PWs)   bands (ev):

    -1.0879   1.6347   4.2848   6.6093   7.0667   9.3567   9.9858  11.9029
    11.9147  13.1500

          k = 0.2221 0.3701 0.0740 (  1391 PWs)   bands (ev):

    -1.0879   1.6347   4.2848   6.6093   7.0667   9.3567   9.9858  11.9029
    11.9147  13.1500

          k = 0.3701 0.0740 0.2221 (  1391 PWs)   bands (ev):

    -1.0879   1.6347   4.2848   6.6093   7.0667   9.3567   9.9858  11.9029
    11.9147  13.1500

          k = 0.2221 0.0740-0.3701 (  1391 PWs)   bands (ev):

    -1.0879   1.6347   4.2848   6.6093   7.0667   9.3567   9.9858  11.9029
    11.9147  13.1500

          k =-0.5181-0.2221 0.0740 (  1386 PWs)   bands (ev):

     0.0868   0.0870   5.3970   5.3973   7.9141   7.9143  11.0102  11.0104
    13.0086  13.0089

          k =-0.0740-0.5181 0.2221 (  1386 PWs)   bands (ev):

     0.0868   0.0869   5.3971   5.3972   7.9141   7.9143  11.0102  11.0103
    13.0087  13.0088

          k = 0.2221-0.5181 0.0740 (  1386 PWs)   bands (ev):

     0.0868   0.0869   5.3971   5.3972   7.9141   7.9143  11.0102  11.0103
    13.0087  13.0090

          k =-0.5181 0.0740 0.2221 (  1386 PWs)   bands (ev):

     0.0868   0.0870   5.3971   5.3973   7.9141   7.9143  11.0102  11.0104
    13.0086  13.0089

          k = 0.2221 0.0740 0.5181 (  1386 PWs)   bands (ev):

     0.0867   0.0870   5.3970   5.3973   7.9140   7.9144  11.0102  11.0104
    13.0089  13.0093

          k = 0.3701-0.3701 0.0740 (  1386 PWs)   bands (ev):

    -0.3034   2.4018   2.4018   5.0348   7.5531  10.1026  10.1027  10.7280
    12.6608  13.2080

          k = 0.3701 0.0740 0.3701 (  1386 PWs)   bands (ev):

    -0.3034   2.4017   2.4018   5.0348   7.5531  10.1027  10.1027  10.7280
    12.6608  13.2080

          k =-0.5181-0.3701 0.0740 (  1396 PWs)   bands (ev):

     0.8639   0.8642   3.5417   3.5419   8.6450   8.6453  11.2034  11.2037
    11.8202  11.8204

          k =-0.0740-0.5181 0.3701 (  1396 PWs)   bands (ev):

     0.8640   0.8641   3.5417   3.5418   8.6451   8.6452  11.2035  11.2036
    11.8202  11.8203

          k = 0.3701-0.5181 0.0740 (  1396 PWs)   bands (ev):

     0.8640   0.8641   3.5417   3.5418   8.6451   8.6452  11.2035  11.2036
    11.8202  11.8203

          k =-0.5181 0.0740 0.3701 (  1396 PWs)   bands (ev):

     0.8639   0.8642   3.5417   3.5419   8.6450   8.6453  11.2034  11.2037
    11.8202  11.8204

          k = 0.3701 0.0740 0.5181 (  1396 PWs)   bands (ev):

     0.8639   0.8642   3.5416   3.5419   8.6450   8.6453  11.2034  11.2037
    11.8201  11.8204

          k =-0.5181 0.5181 0.0740 (  1392 PWs)   bands (ev):

     2.0202   2.0203   2.0204   2.0205   9.7440   9.7442   9.7443   9.7444
    12.9297  12.9298

          k =-0.5181 0.0740-0.5181 (  1392 PWs)   bands (ev):

     2.0201   2.0203   2.0204   2.0206   9.7439   9.7442   9.7443   9.7445
    12.9295  12.9299

          k = 0.3701-0.2221 0.2221 (  1402 PWs)   bands (ev):

    -0.6950   2.0188   4.6515   4.6515   7.3203   7.3204   9.8744  12.4426
    12.7045  12.7045

          k =-0.2221 0.3701 0.2221 (  1402 PWs)   bands (ev):

    -0.6950   2.0188   4.6515   4.6515   7.3203   7.3203   9.8744  12.4426
    12.7045  12.7045

          k =-0.5181-0.2221 0.2221 (  1390 PWs)   bands (ev):

     0.4760   0.4762   5.5311   5.5313   6.0833   6.0835  10.9827  10.9830
    13.3660  13.3661

          k =-0.2221-0.5181 0.2221 (  1390 PWs)   bands (ev):

     0.4760   0.4762   5.5312   5.5312   6.0833   6.0835  10.9828  10.9829
    13.3660  13.3661

          k = 0.3701-0.3701 0.2221 (  1393 PWs)   bands (ev):

     0.0871   2.7825   2.7825   5.1659   5.7180   8.0598   8.0599  10.6389
    13.4701  15.5660

          k = 0.3701 0.2221 0.3701 (  1393 PWs)   bands (ev):

     0.0871   2.7825   2.7825   5.1659   5.7180   8.0598   8.0599  10.6389
    13.4701  15.5661

          k =-0.5181-0.3701 0.2221 (  1396 PWs)   bands (ev):

     1.2507   1.2509   3.9120   3.9123   6.5896   6.5898   9.1701   9.1704
    14.5194  14.5196

          k =-0.2221-0.5181 0.3701 (  1396 PWs)   bands (ev):

     1.2507   1.2508   3.9121   3.9122   6.5897   6.5898   9.1702   9.1703
    14.5194  14.5195

          k = 0.3701-0.5181 0.2221 (  1396 PWs)   bands (ev):

     1.2507   1.2508   3.9121   3.9122   6.5897   6.5898   9.1702   9.1703
    14.5194  14.5195

          k =-0.5181 0.2221 0.3701 (  1396 PWs)   bands (ev):

     1.2507   1.2509   3.9120   3.9123   6.5896   6.5899   9.1701   9.1704
    14.5194  14.5196

          k = 0.3701 0.2221 0.5181 (  1396 PWs)   bands (ev):

     1.2507   1.2509   3.9120   3.9123   6.5896   6.5899   9.1701   9.1704
    14.5194  14.5196

          k =-0.5181 0.5181 0.2221 (  1400 PWs)   bands (ev):

     2.4024   2.4025   2.4026   2.4027   7.6957   7.6959   7.6960   7.6961
    15.6192  15.6194

          k =-0.5181 0.2221-0.5181 (  1400 PWs)   bands (ev):

     2.4023   2.4025   2.4026   2.4028   7.6956   7.6959   7.6960   7.6962
    15.6191  15.6194

          k =-0.5181-0.3701 0.3701 (  1402 PWs)   bands (ev):

     2.0198   2.0201   4.4342   4.4344   4.9692   4.9695   7.3423   7.3426
    17.3644  18.0446

          k =-0.3701-0.5181 0.3701 (  1402 PWs)   bands (ev):

     2.0199   2.0200   4.4343   4.4343   4.9693   4.9694   7.3424   7.3425
    17.3643  17.3644

          k =-0.5181 0.5181 0.3701 (  1388 PWs)   bands (ev):

     3.1582   3.1583   3.1584   3.1585   5.8604   5.8606   5.8607   5.8607
    18.6596  18.6597

          k =-0.5181 0.3701-0.5181 (  1388 PWs)   bands (ev):

     3.1581   3.1583   3.1584   3.1586   5.8603   5.8606   5.8607   5.8608
    18.6595  18.6597

     the Fermi energy is     9.0756 ev

!    total energy              =    -157.99125801 Ry
     Harris-Foulkes estimate   =    -157.99125821 Ry
     estimated scf accuracy    <       0.00000013 Ry

     total all-electron energy =     -1942.562386 Ry

     The total energy is the sum of the following terms:

     one-electron contribution =      13.78865268 Ry
     hartree contribution      =       0.02893006 Ry
     xc contribution           =     -10.61274352 Ry
     ewald contribution        =     -22.44504951 Ry
     one-center paw contrib.   =    -138.75217460 Ry
     smearing contrib. (-TS)   =       0.00112688 Ry

     convergence has been achieved in   6 iterations

     Forces acting on atoms (Ry/au):

     atom    1 type  1   force =     0.00000000    0.00000000    0.00000000
     atom    2 type  2   force =     0.00000000    0.00000000    0.00000000
     atom    3 type  3   force =     0.00000000    0.00000000    0.00000000
     atom    4 type  4   force =     0.00000000    0.00000000    0.00000000

     Total force =     0.000000     Total SCF correction =     0.000000


     entering subroutine stress ...

          total   stress  (Ry/bohr**3)                   (kbar)     P=  108.06
   0.00073458   0.00000000   0.00000000        108.06      0.00      0.00
   0.00000000   0.00073459   0.00000000          0.00    108.06      0.00
   0.00000000   0.00000000   0.00073458          0.00      0.00    108.06


     Writing output data file template.save

     init_run     :      3.23s CPU      3.33s WALL (       1 calls)
     electrons    :      7.55s CPU      7.76s WALL (       1 calls)
     forces       :      0.17s CPU      0.18s WALL (       1 calls)
     stress       :      0.45s CPU      0.45s WALL (       1 calls)

     Called by init_run:
     wfcinit      :      1.54s CPU      1.60s WALL (       1 calls)
     potinit      :      0.33s CPU      0.36s WALL (       1 calls)

     Called by electrons:
     c_bands      :      5.92s CPU      6.08s WALL (       7 calls)
     sum_band     :      1.08s CPU      1.13s WALL (       7 calls)
     v_of_rho     :      0.10s CPU      0.10s WALL (       7 calls)
     newd         :      0.10s CPU      0.12s WALL (       7 calls)
     PAW_pot      :      0.59s CPU      0.61s WALL (       7 calls)
     mix_rho      :      0.02s CPU      0.01s WALL (       7 calls)

     Called by c_bands:
     init_us_2    :      0.24s CPU      0.24s WALL (    1088 calls)
     cegterg      :      5.66s CPU      5.82s WALL (     448 calls)

     Called by sum_band:
     sum_band:bec :      0.00s CPU      0.00s WALL (     448 calls)
     addusdens    :      0.11s CPU      0.10s WALL (       7 calls)

     Called by *egterg:
     h_psi        :      5.93s CPU      6.07s WALL (    1531 calls)
     s_psi        :      0.16s CPU      0.16s WALL (    1531 calls)
     g_psi        :      0.01s CPU      0.02s WALL (    1019 calls)
     cdiaghg      :      0.30s CPU      0.35s WALL (    1403 calls)

     Called by h_psi:
     h_psi:pot    :      5.91s CPU      6.05s WALL (    1531 calls)
     h_psi:calbec :      0.24s CPU      0.25s WALL (    1531 calls)
     vloc_psi     :      5.48s CPU      5.61s WALL (    1531 calls)
     add_vuspsi   :      0.18s CPU      0.18s WALL (    1531 calls)

     General routines
     calbec       :      0.37s CPU      0.37s WALL (    2299 calls)
     fft          :      0.11s CPU      0.11s WALL (     137 calls)
     ffts         :      0.01s CPU      0.01s WALL (      14 calls)
     fftw         :      5.76s CPU      6.00s WALL (   29424 calls)
     interpolate  :      0.02s CPU      0.02s WALL (      14 calls)
     davcio       :      0.00s CPU      0.00s WALL (      64 calls)

     Parallel routines
     fft_scatter  :      1.60s CPU      1.64s WALL (   29575 calls)

     PWSCF        :    14.60s CPU        15.10s WALL


   This run was terminated on:  13:35:54   9Jun2017            

=------------------------------------------------------------------------------=
   JOB DONE.
=------------------------------------------------------------------------------=
