
     Program PWSCF v.6.0 (svn rev. 13079) starts on  9Jun2017 at 13:45:11 

     This program is part of the open-source Quantum ESPRESSO suite
     for quantum simulation of materials; please cite
         "P. Giannozzi et al., J. Phys.:Condens. Matter 21 395502 (2009);
          URL http://www.quantum-espresso.org", 
     in publications or presentations arising from this work. More details at
     http://www.quantum-espresso.org/quote

     Parallel version (MPI), running on     4 processors
     R & G space division:  proc/nbgrp/npool/nimage =       4
     Waiting for input...
     Reading input from standard input
Warning: card &IONS ignored
Warning: card ION_DYNAMICS='BFGS', ignored
Warning: card / ignored
Warning: card &CELL ignored
Warning: card CELL_DYNAMICS='BFGS', ignored
Warning: card PRESS = 0.0, ignored
Warning: card CELL_FACTOR = 2.0, ignored
Warning: card / ignored

     Current dimensions of program PWSCF are:
     Max number of different atomic species (ntypx) = 10
     Max number of k-points (npk) =  40000
     Max angular momentum in pseudopotentials (lmaxx) =  3
               file Al.pbe-nl-kjpaw_psl.1.0.0.UPF: wavefunction(s)  3S 3P renormalized
               file Al.pbe-nl-kjpaw_psl.1.0.0.UPF: wavefunction(s)  3S 3P renormalized
               file Al.pbe-nl-kjpaw_psl.1.0.0.UPF: wavefunction(s)  3S 3P renormalized
               file Al.pbe-nl-kjpaw_psl.1.0.0.UPF: wavefunction(s)  3S 3P renormalized

     Subspace diagonalization in iterative solution of the eigenvalue problem:
     a serial algorithm will be used


     Parallelization info
     --------------------
     sticks:   dense  smooth     PW     G-vecs:    dense   smooth      PW
     Min         231     162     50                 5280     3096     537
     Max         232     164     52                 5281     3097     538
     Sum         927     653    203                21121    12385    2151



     bravais-lattice index     =            0
     lattice parameter (alat)  =       7.6205  a.u.
     unit-cell volume          =     442.5300 (a.u.)^3
     number of atoms/cell      =            4
     number of atomic types    =            4
     number of electrons       =        12.00
     number of Kohn-Sham states=           10
     kinetic-energy cutoff     =      35.0000  Ry
     charge density cutoff     =     200.0000  Ry
     convergence threshold     =      1.0E-06
     mixing beta               =       0.3000
     number of iterations used =           10  TF        mixing
     Exchange-correlation      =  SLA  PW   PBX  PBC ( 1  4  3  4 0 0)

     celldm(1)=   7.620455  celldm(2)=   0.000000  celldm(3)=   0.000000
     celldm(4)=   0.000000  celldm(5)=   0.000000  celldm(6)=   0.000000

     crystal axes: (cart. coord. in units of alat)
               a(1) = (   1.014000   0.000000   0.000000 )  
               a(2) = (   0.000000   0.986000   0.000000 )  
               a(3) = (   0.000000   0.000000   1.000196 )  

     reciprocal axes: (cart. coord. in units 2 pi/alat)
               b(1) = (  0.986193  0.000000  0.000000 )  
               b(2) = (  0.000000  1.014199  0.000000 )  
               b(3) = (  0.000000  0.000000  0.999804 )  


     PseudoPot. # 1 for Al read from file:
     /home/ben/espresso/pp/Al.pbe-nl-kjpaw_psl.1.0.0.UPF
     MD5 check sum: 339dbea23cf3ab9a065ad45c0f9085d7
     Pseudo is Projector augmented-wave + core cor, Zval =  3.0
     Generated using "atomic" code by A. Dal Corso  v.5.1
     Shape of augmentation charge: PSQ
     Using radial grid of 1135 points,  4 beta functions with: 
                l(1) =   0
                l(2) =   0
                l(3) =   1
                l(4) =   1
     Q(r) pseudized with 0 coefficients 


     PseudoPot. # 2 for Al read from file:
     /home/ben/espresso/pp/Al.pbe-nl-kjpaw_psl.1.0.0.UPF
     MD5 check sum: 339dbea23cf3ab9a065ad45c0f9085d7
     Pseudo is Projector augmented-wave + core cor, Zval =  3.0
     Generated using "atomic" code by A. Dal Corso  v.5.1
     Shape of augmentation charge: PSQ
     Using radial grid of 1135 points,  4 beta functions with: 
                l(1) =   0
                l(2) =   0
                l(3) =   1
                l(4) =   1
     Q(r) pseudized with 0 coefficients 


     PseudoPot. # 3 for Al read from file:
     /home/ben/espresso/pp/Al.pbe-nl-kjpaw_psl.1.0.0.UPF
     MD5 check sum: 339dbea23cf3ab9a065ad45c0f9085d7
     Pseudo is Projector augmented-wave + core cor, Zval =  3.0
     Generated using "atomic" code by A. Dal Corso  v.5.1
     Shape of augmentation charge: PSQ
     Using radial grid of 1135 points,  4 beta functions with: 
                l(1) =   0
                l(2) =   0
                l(3) =   1
                l(4) =   1
     Q(r) pseudized with 0 coefficients 


     PseudoPot. # 4 for Al read from file:
     /home/ben/espresso/pp/Al.pbe-nl-kjpaw_psl.1.0.0.UPF
     MD5 check sum: 339dbea23cf3ab9a065ad45c0f9085d7
     Pseudo is Projector augmented-wave + core cor, Zval =  3.0
     Generated using "atomic" code by A. Dal Corso  v.5.1
     Shape of augmentation charge: PSQ
     Using radial grid of 1135 points,  4 beta functions with: 
                l(1) =   0
                l(2) =   0
                l(3) =   1
                l(4) =   1
     Q(r) pseudized with 0 coefficients 


     atomic species   valence    mass     pseudopotential
        Al1            3.00    26.98200     Al( 1.00)
        Al2            3.00    26.98200     Al( 1.00)
        Al3            3.00    26.98200     Al( 1.00)
        Al4            3.00    26.98200     Al( 1.00)

      8 Sym. Ops., with inversion, found



   Cartesian axes

     site n.     atom                  positions (alat units)
         1           Al1 tau(   1) = (   0.0000000   0.0000000   0.0000000  )
         2           Al2 tau(   2) = (   0.5070000   0.4930000   0.0000000  )
         3           Al3 tau(   3) = (   0.5070000   0.0000000   0.5000980  )
         4           Al4 tau(   4) = (   0.0000000   0.4930000   0.5000980  )

     number of k points=    64  Marzari-Vanderbilt smearing, width (Ry)=  0.0200
                       cart. coord. in units 2pi/alat
        k(    1) = (   0.0704424   0.0724428   0.0714146), wk =   0.0466472
        k(    2) = (   0.0704424   0.0724428   0.2142437), wk =   0.0466472
        k(    3) = (   0.0704424   0.0724428   0.3570729), wk =   0.0466472
        k(    4) = (   0.0704424   0.0724428  -0.4999020), wk =   0.0233236
        k(    5) = (   0.0704424   0.2173283   0.0714146), wk =   0.0466472
        k(    6) = (   0.0704424   0.2173283   0.2142437), wk =   0.0466472
        k(    7) = (   0.0704424   0.2173283   0.3570729), wk =   0.0466472
        k(    8) = (   0.0704424   0.2173283  -0.4999020), wk =   0.0233236
        k(    9) = (   0.0704424   0.3622139   0.0714146), wk =   0.0466472
        k(   10) = (   0.0704424   0.3622139   0.2142437), wk =   0.0466472
        k(   11) = (   0.0704424   0.3622139   0.3570729), wk =   0.0466472
        k(   12) = (   0.0704424   0.3622139  -0.4999020), wk =   0.0233236
        k(   13) = (   0.0704424  -0.5070994   0.0714146), wk =   0.0233236
        k(   14) = (   0.0704424  -0.5070994   0.2142437), wk =   0.0233236
        k(   15) = (   0.0704424  -0.5070994   0.3570729), wk =   0.0233236
        k(   16) = (   0.0704424  -0.5070994  -0.4999020), wk =   0.0116618
        k(   17) = (   0.2113271   0.0724428   0.0714146), wk =   0.0466472
        k(   18) = (   0.2113271   0.0724428   0.2142437), wk =   0.0466472
        k(   19) = (   0.2113271   0.0724428   0.3570729), wk =   0.0466472
        k(   20) = (   0.2113271   0.0724428  -0.4999020), wk =   0.0233236
        k(   21) = (   0.2113271   0.2173283   0.0714146), wk =   0.0466472
        k(   22) = (   0.2113271   0.2173283   0.2142437), wk =   0.0466472
        k(   23) = (   0.2113271   0.2173283   0.3570729), wk =   0.0466472
        k(   24) = (   0.2113271   0.2173283  -0.4999020), wk =   0.0233236
        k(   25) = (   0.2113271   0.3622139   0.0714146), wk =   0.0466472
        k(   26) = (   0.2113271   0.3622139   0.2142437), wk =   0.0466472
        k(   27) = (   0.2113271   0.3622139   0.3570729), wk =   0.0466472
        k(   28) = (   0.2113271   0.3622139  -0.4999020), wk =   0.0233236
        k(   29) = (   0.2113271  -0.5070994   0.0714146), wk =   0.0233236
        k(   30) = (   0.2113271  -0.5070994   0.2142437), wk =   0.0233236
        k(   31) = (   0.2113271  -0.5070994   0.3570729), wk =   0.0233236
        k(   32) = (   0.2113271  -0.5070994  -0.4999020), wk =   0.0116618
        k(   33) = (   0.3522119   0.0724428   0.0714146), wk =   0.0466472
        k(   34) = (   0.3522119   0.0724428   0.2142437), wk =   0.0466472
        k(   35) = (   0.3522119   0.0724428   0.3570729), wk =   0.0466472
        k(   36) = (   0.3522119   0.0724428  -0.4999020), wk =   0.0233236
        k(   37) = (   0.3522119   0.2173283   0.0714146), wk =   0.0466472
        k(   38) = (   0.3522119   0.2173283   0.2142437), wk =   0.0466472
        k(   39) = (   0.3522119   0.2173283   0.3570729), wk =   0.0466472
        k(   40) = (   0.3522119   0.2173283  -0.4999020), wk =   0.0233236
        k(   41) = (   0.3522119   0.3622139   0.0714146), wk =   0.0466472
        k(   42) = (   0.3522119   0.3622139   0.2142437), wk =   0.0466472
        k(   43) = (   0.3522119   0.3622139   0.3570729), wk =   0.0466472
        k(   44) = (   0.3522119   0.3622139  -0.4999020), wk =   0.0233236
        k(   45) = (   0.3522119  -0.5070994   0.0714146), wk =   0.0233236
        k(   46) = (   0.3522119  -0.5070994   0.2142437), wk =   0.0233236
        k(   47) = (   0.3522119  -0.5070994   0.3570729), wk =   0.0233236
        k(   48) = (   0.3522119  -0.5070994  -0.4999020), wk =   0.0116618
        k(   49) = (  -0.4930966   0.0724428   0.0714146), wk =   0.0233236
        k(   50) = (  -0.4930966   0.0724428   0.2142437), wk =   0.0233236
        k(   51) = (  -0.4930966   0.0724428   0.3570729), wk =   0.0233236
        k(   52) = (  -0.4930966   0.0724428  -0.4999020), wk =   0.0116618
        k(   53) = (  -0.4930966   0.2173283   0.0714146), wk =   0.0233236
        k(   54) = (  -0.4930966   0.2173283   0.2142437), wk =   0.0233236
        k(   55) = (  -0.4930966   0.2173283   0.3570729), wk =   0.0233236
        k(   56) = (  -0.4930966   0.2173283  -0.4999020), wk =   0.0116618
        k(   57) = (  -0.4930966   0.3622139   0.0714146), wk =   0.0233236
        k(   58) = (  -0.4930966   0.3622139   0.2142437), wk =   0.0233236
        k(   59) = (  -0.4930966   0.3622139   0.3570729), wk =   0.0233236
        k(   60) = (  -0.4930966   0.3622139  -0.4999020), wk =   0.0116618
        k(   61) = (  -0.4930966  -0.5070994   0.0714146), wk =   0.0116618
        k(   62) = (  -0.4930966  -0.5070994   0.2142437), wk =   0.0116618
        k(   63) = (  -0.4930966  -0.5070994   0.3570729), wk =   0.0116618
        k(   64) = (  -0.4930966  -0.5070994  -0.4999020), wk =   0.0058309

     Dense  grid:    21121 G-vectors     FFT dimensions: (  36,  36,  36)

     Smooth grid:    12385 G-vectors     FFT dimensions: (  30,  30,  30)

     Estimated max dynamical RAM per process >       8.01Mb

     Estimated total allocated dynamical RAM >      32.02Mb

     Initial potential from superposition of free atoms

     starting charge   11.99084, renormalised to   12.00000
     Starting wfc are   16 randomized atomic wfcs
     Checking if some PAW data can be deallocated... 

     total cpu time spent up to now is        3.3 secs

     per-process dynamical memory:    17.3 Mb

     Self-consistent Calculation

     iteration #  1     ecut=    35.00 Ry     beta=0.30
     Davidson diagonalization with overlap
     ethr =  1.00E-02,  avg # of iterations =  3.3

     Threshold (ethr) on eigenvalues was too large:
     Diagonalizing with lowered threshold

     Davidson diagonalization with overlap
     ethr =  1.98E-04,  avg # of iterations =  3.4

     total cpu time spent up to now is        7.3 secs

     total energy              =    -158.01002306 Ry
     Harris-Foulkes estimate   =    -158.01211451 Ry
     estimated scf accuracy    <       0.02299293 Ry

     iteration #  2     ecut=    35.00 Ry     beta=0.30
     Davidson diagonalization with overlap
     ethr =  1.92E-04,  avg # of iterations =  1.0

     total cpu time spent up to now is       11.3 secs

     total energy              =    -158.00569979 Ry
     Harris-Foulkes estimate   =    -158.01014164 Ry
     estimated scf accuracy    <       0.01431363 Ry

     iteration #  3     ecut=    35.00 Ry     beta=0.30
     Davidson diagonalization with overlap
     ethr =  1.19E-04,  avg # of iterations =  1.0

     total cpu time spent up to now is       16.0 secs

     total energy              =    -158.00597489 Ry
     Harris-Foulkes estimate   =    -158.00596361 Ry
     estimated scf accuracy    <       0.00003609 Ry

     iteration #  4     ecut=    35.00 Ry     beta=0.30
     Davidson diagonalization with overlap
     ethr =  3.01E-07,  avg # of iterations =  3.9

     total cpu time spent up to now is       22.8 secs

     total energy              =    -158.00605143 Ry
     Harris-Foulkes estimate   =    -158.00603434 Ry
     estimated scf accuracy    <       0.00001790 Ry

     iteration #  5     ecut=    35.00 Ry     beta=0.30
     Davidson diagonalization with overlap
     ethr =  1.49E-07,  avg # of iterations =  1.0

     total cpu time spent up to now is       24.3 secs

     total energy              =    -158.00604943 Ry
     Harris-Foulkes estimate   =    -158.00605239 Ry
     estimated scf accuracy    <       0.00000660 Ry

     iteration #  6     ecut=    35.00 Ry     beta=0.30
     Davidson diagonalization with overlap
     ethr =  5.50E-08,  avg # of iterations =  2.0

     total cpu time spent up to now is       26.0 secs

     End of self-consistent calculation

          k = 0.0704 0.0724 0.0714 (  1542 PWs)   bands (ev):

    -3.0737   4.2263   4.4146   4.6181   6.9463   7.2325   7.5362  11.3997
    11.5937  11.7724

          k = 0.0704 0.0724 0.2142 (  1539 PWs)   bands (ev):

    -2.7030   2.3760   4.5748   4.9648   7.2920   7.8709   9.4474   9.8112
     9.9079  12.1233

          k = 0.0704 0.0724 0.3571 (  1540 PWs)   bands (ev):

    -1.9646   0.5886   5.2691   5.6546   7.6691   7.8464   8.2425   8.6116
    10.5483  11.1194

          k = 0.0704 0.0724-0.4999 (  1542 PWs)   bands (ev):

    -0.8644  -0.8640   6.2840   6.2844   6.7185   6.7190   8.9314   8.9317
     9.8885   9.8891

          k = 0.0704 0.2173 0.0714 (  1543 PWs)   bands (ev):

    -2.6923   2.5293   4.5848   4.7721   7.3016   7.5833   9.5885   9.7635
    10.2742  11.7584

          k = 0.0704 0.2173 0.2142 (  1546 PWs)   bands (ev):

    -2.3226   2.7424   2.8850   4.9315   7.4933   7.9882   9.7407   9.8401
    10.3341  10.6496

          k = 0.0704 0.2173 0.3571 (  1551 PWs)   bands (ev):

    -1.5862   0.9602   3.5935   5.5981   6.0798   8.0562   8.4099  10.5884
    10.6773  11.5167

          k = 0.0704 0.2173-0.4999 (  1558 PWs)   bands (ev):

    -0.4889  -0.4885   4.6463   4.6467   6.6819   6.6824   9.4294   9.4298
    11.6188  11.6192

          k = 0.0704 0.3622 0.0714 (  1552 PWs)   bands (ev):

    -1.9326   0.6928   5.2988   5.4839   7.7421   7.8148   8.2042   8.3732
    10.6391  10.9172

          k = 0.0704 0.3622 0.2142 (  1556 PWs)   bands (ev):

    -1.5649   1.0538   3.4722   5.6122   6.0372   8.1437   8.4293  10.4730
    10.6466  11.2998

          k = 0.0704 0.3622 0.3571 (  1554 PWs)   bands (ev):

    -0.8323   1.7006   1.7729   4.2554   6.3569   8.7694   8.8380   9.1230
    11.2402  11.4971

          k = 0.0704 0.3622-0.4999 (  1556 PWs)   bands (ev):

     0.2592   0.2596   2.8441   2.8445   7.3920   7.3925   9.8710   9.8715
    10.1555  10.1559

          k = 0.0704-0.5071 0.0714 (  1548 PWs)   bands (ev):

    -0.8009  -0.8008   6.3217   6.3218   6.6011   6.6012   8.9183   8.9184
     9.7186   9.7188

          k = 0.0704-0.5071 0.2142 (  1546 PWs)   bands (ev):

    -0.4361  -0.4360   4.5570   4.5572   6.7311   6.7312   9.4762   9.4764
    11.5321  11.5322

          k = 0.0704-0.5071 0.3571 (  1560 PWs)   bands (ev):

     0.2907   0.2909   2.8034   2.8035   7.4218   7.4219   9.8320   9.8321
    10.1853  10.1854

          k = 0.0704-0.5071-0.4999 (  1552 PWs)   bands (ev):

     1.3737   1.3739   1.3742   1.3743   8.4573   8.4576   8.4579   8.4579
    11.2144  11.2145

          k = 0.2113 0.0724 0.0714 (  1533 PWs)   bands (ev):

    -2.7130   2.2333   4.7529   4.9556   7.5655   7.8629   9.4895   9.5630
     9.6784  12.1075

          k = 0.2113 0.0724 0.2142 (  1543 PWs)   bands (ev):

    -2.3433   2.5900   2.7226   5.2997   7.4428   8.3270   9.8175   9.9147
    10.2230  10.3336

          k = 0.2113 0.0724 0.3571 (  1542 PWs)   bands (ev):

    -1.6066   0.9402   3.3006   5.7077   6.0541   8.4104   8.9744  10.5283
    10.6777  11.5264

          k = 0.2113 0.0724-0.4999 (  1546 PWs)   bands (ev):

    -0.5092  -0.5088   4.3580   4.3584   7.0424   7.0429   9.9779   9.9782
    11.7272  11.7279

          k = 0.2113 0.2173 0.0714 (  1546 PWs)   bands (ev):

    -2.3326   2.6003   2.8755   5.1084   7.5276   8.0948   9.7824   9.8106
    10.1913  10.6440

          k = 0.2113 0.2173 0.2142 (  1551 PWs)   bands (ev):

    -1.9638   2.9559   3.0880   3.2301   7.8550   7.9901   8.1141  10.3032
    10.6369  10.9940

          k = 0.2113 0.2173 0.3571 (  1549 PWs)   bands (ev):

    -1.2292   1.3109   3.6634   3.9346   6.1403   6.4056   8.6900  10.9738
    11.0948  11.6555

          k = 0.2113 0.2173-0.4999 (  1546 PWs)   bands (ev):

    -0.1346  -0.1342   4.6697   4.6700   5.0622   5.0627   9.7259   9.7264
    11.9169  11.9171

          k = 0.2113 0.3622 0.0714 (  1552 PWs)   bands (ev):

    -1.5748   1.0441   3.3312   5.7183   5.9712   8.3132   8.7028  10.5153
    10.5243  11.3557

          k = 0.2113 0.3622 0.2142 (  1547 PWs)   bands (ev):

    -1.2080   1.4042   3.6836   3.8143   6.2293   6.3569   8.5732  10.9923
    11.0473  11.3228

          k = 0.2113 0.3622 0.3571 (  1550 PWs)   bands (ev):

    -0.4772   2.0495   2.1215   4.3315   4.6795   6.8567   6.9263   9.3492
    11.6828  13.9614

          k = 0.2113 0.3622-0.4999 (  1552 PWs)   bands (ev):

     0.6117   0.6121   3.1883   3.1888   5.4641   5.4646   7.9692   7.9696
    12.6860  12.6864

          k = 0.2113-0.5071 0.0714 (  1556 PWs)   bands (ev):

    -0.4459  -0.4458   4.4183   4.4184   6.9039   6.9040   9.7426   9.7427
    11.5731  11.5734

          k = 0.2113-0.5071 0.2142 (  1546 PWs)   bands (ev):

    -0.0820  -0.0818   4.6903   4.6904   5.0027   5.0029   9.6391   9.6393
    11.9099  11.9099

          k = 0.2113-0.5071 0.3571 (  1556 PWs)   bands (ev):

     0.6432   0.6433   3.1479   3.1480   5.4943   5.4944   7.9298   7.9299
    12.7152  12.7154

          k = 0.2113-0.5071-0.4999 (  1568 PWs)   bands (ev):

     1.7234   1.7236   1.7239   1.7240   6.5410   6.5413   6.5415   6.5416
    13.7210  13.7213

          k = 0.3522 0.0724 0.0714 (  1529 PWs)   bands (ev):

    -1.9943   0.4916   5.4270   5.6274   7.7535   7.8938   8.3573   8.5939
    10.7359  11.0299

          k = 0.3522 0.0724 0.2142 (  1542 PWs)   bands (ev):

    -1.6264   0.8531   3.4134   5.7414   6.0472   8.3301   8.9566  10.7732
    10.7836  11.5130

          k = 0.3522 0.0724 0.3571 (  1554 PWs)   bands (ev):

    -0.8935   1.5734   1.6407   4.0616   6.6813   9.0231   9.0865   9.6560
    11.4190  11.9568

          k = 0.3522 0.0724-0.4999 (  1550 PWs)   bands (ev):

     0.1986   0.1990   2.6466   2.6470   7.7138   7.7143  10.0532  10.0537
    10.6874  10.6878

          k = 0.3522 0.2173 0.0714 (  1550 PWs)   bands (ev):

    -1.6158   0.8635   3.5652   5.7231   6.0218   8.1453   8.6655  10.7367
    10.8199  11.5392

          k = 0.3522 0.2173 0.2142 (  1550 PWs)   bands (ev):

    -1.2489   1.2241   3.7754   3.9159   6.1853   6.3230   8.7979  11.1385
    11.2892  11.6415

          k = 0.3522 0.2173 0.3571 (  1548 PWs)   bands (ev):

    -0.5178   1.9426   2.0096   4.3637   4.7039   7.0199   7.0844   9.4412
    12.3385  13.8827

          k = 0.3522 0.2173-0.4999 (  1550 PWs)   bands (ev):

     0.5714   0.5718   3.0117   3.0122   5.6935   5.6939   8.0620   8.0624
    13.3292  13.3296

          k = 0.3522 0.3622 0.0714 (  1553 PWs)   bands (ev):

    -0.8618   1.6045   1.7441   4.1622   6.5123   8.8576   8.9898   9.3816
    11.3253  11.6896

          k = 0.3522 0.3622 0.2142 (  1545 PWs)   bands (ev):

    -0.4968   1.9632   2.1023   4.3805   4.6577   6.9016   7.0358   9.3934
    11.9999  13.8742

          k = 0.3522 0.3622 0.3571 (  1549 PWs)   bands (ev):

     0.2305   2.6769   2.7434   2.8148   5.1699   5.2401   5.3052   7.6814
    14.6072  14.9931

          k = 0.3522 0.3622-0.4999 (  1548 PWs)   bands (ev):

     1.3141   1.3146   3.6767   3.6771   3.9634   3.9639   6.2899   6.2903
    15.5322  15.5325

          k = 0.3522-0.5071 0.0714 (  1552 PWs)   bands (ev):

     0.2615   0.2617   2.7082   2.7084   7.5759   7.5761   9.9189   9.9190
    10.4433  10.4434

          k = 0.3522-0.5071 0.2142 (  1544 PWs)   bands (ev):

     0.6238   0.6239   3.0628   3.0630   5.6046   5.6048   7.9744   7.9745
    13.0264  13.0266

          k = 0.3522-0.5071 0.3571 (  1546 PWs)   bands (ev):

     1.3454   1.3456   3.6852   3.6853   3.9452   3.9454   6.2501   6.2502
    15.5441  15.5443

          k = 0.3522-0.5071-0.4999 (  1556 PWs)   bands (ev):

     2.4193   2.4195   2.4198   2.4199   4.8496   4.8499   4.8502   4.8502
    16.5303  16.5306

          k =-0.4931 0.0724 0.0714 (  1542 PWs)   bands (ev):

    -0.9233  -0.9230   6.3946   6.3949   6.6823   6.6827   9.0886   9.0888
     9.9040   9.9045

          k =-0.4931 0.0724 0.2142 (  1548 PWs)   bands (ev):

    -0.5582  -0.5578   4.4413   4.4416   6.9970   6.9973   9.9401   9.9404
    11.7861  11.7865

          k =-0.4931 0.0724 0.3571 (  1548 PWs)   bands (ev):

     0.1694   0.1697   2.6847   2.6850   7.6865   7.6868  10.0895  10.0899
    10.6605  10.6608

          k =-0.4931 0.0724-0.4999 (  1556 PWs)   bands (ev):

     1.2534   1.2538   1.2539   1.2542   8.7188   8.7192   8.7193   8.7196
    11.6917  11.6919

          k =-0.4931 0.2173 0.0714 (  1548 PWs)   bands (ev):

    -0.5476  -0.5473   4.5908   4.5911   6.8093   6.8096   9.6566   9.6569
    11.7401  11.7405

          k =-0.4931 0.2173 0.2142 (  1542 PWs)   bands (ev):

    -0.1834  -0.1831   4.7256   4.7258   5.0429   5.0433   9.8063   9.8066
    12.1537  12.1539

          k =-0.4931 0.2173 0.3571 (  1542 PWs)   bands (ev):

     0.5423   0.5427   3.0496   3.0499   5.6657   5.6660   8.0987   8.0990
    13.3057  13.3060

          k =-0.4931 0.2173-0.4999 (  1552 PWs)   bands (ev):

     1.6235   1.6239   1.6240   1.6242   6.7116   6.7120   6.7121   6.7124
    14.3138  14.3144

          k =-0.4931 0.3622 0.0714 (  1556 PWs)   bands (ev):

     0.2008   0.2011   2.7871   2.7874   7.5188   7.5191   9.9941   9.9945
    10.3864  10.3867

          k =-0.4931 0.3622 0.2142 (  1538 PWs)   bands (ev):

     0.5632   0.5635   3.1412   3.1415   5.5467   5.5470   8.0505   8.0508
    12.9725  12.9728

          k =-0.4931 0.3622 0.3571 (  1540 PWs)   bands (ev):

     1.2852   1.2856   3.6940   3.6942   3.9556   3.9561   6.3270   6.3273
    15.8556  15.8559

          k =-0.4931 0.3622-0.4999 (  1544 PWs)   bands (ev):

     2.3599   2.3602   2.3603   2.3606   4.9271   4.9275   4.9276   4.9279
    17.2338  17.2341

          k =-0.4931-0.5071 0.0714 (  1560 PWs)   bands (ev):

     1.3158   1.3160   1.3162   1.3163   8.5824   8.5827   8.5829   8.5829
    11.4458  11.4461

          k =-0.4931-0.5071 0.2142 (  1556 PWs)   bands (ev):

     1.6754   1.6756   1.6758   1.6758   6.6231   6.6234   6.6236   6.6236
    14.0076  14.0078

          k =-0.4931-0.5071 0.3571 (  1552 PWs)   bands (ev):

     2.3908   2.3910   2.3911   2.3912   4.8870   4.8873   4.8875   4.8875
    16.8694  16.8696

          k =-0.4931-0.5071-0.4999 (  1544 PWs)   bands (ev):

     3.3500   3.3502   3.3503   3.3506   3.5838   3.5844   3.5845   3.5847
    19.1218  19.1221

     the Fermi energy is     7.9680 ev

!    total energy              =    -158.00605011 Ry
     Harris-Foulkes estimate   =    -158.00605029 Ry
     estimated scf accuracy    <       0.00000008 Ry

     total all-electron energy =     -1942.577178 Ry

     The total energy is the sum of the following terms:

     one-electron contribution =      12.71512525 Ry
     hartree contribution      =       0.02411184 Ry
     xc contribution           =     -10.37561578 Ry
     ewald contribution        =     -21.65927689 Ry
     one-center paw contrib.   =    -138.70987938 Ry
     smearing contrib. (-TS)   =      -0.00051516 Ry

     convergence has been achieved in   6 iterations

     Forces acting on atoms (Ry/au):

     atom    1 type  1   force =     0.00000000    0.00000000    0.00000000
     atom    2 type  2   force =     0.00000000    0.00000000    0.00000000
     atom    3 type  3   force =     0.00000000    0.00000000    0.00000000
     atom    4 type  4   force =     0.00000000    0.00000000    0.00000000

     Total force =     0.000000     Total SCF correction =     0.000000


     entering subroutine stress ...

          total   stress  (Ry/bohr**3)                   (kbar)     P=    0.73
  -0.00001164   0.00000000   0.00000000         -1.71      0.00      0.00
   0.00000000  -0.00000378   0.00000000          0.00     -0.56      0.00
   0.00000000   0.00000000   0.00003031          0.00      0.00      4.46


     Writing output data file template.save

     init_run     :      2.09s CPU      2.13s WALL (       1 calls)
     electrons    :     22.10s CPU     22.75s WALL (       1 calls)
     forces       :      0.79s CPU      0.79s WALL (       1 calls)
     stress       :      1.79s CPU      1.82s WALL (       1 calls)

     Called by init_run:
     wfcinit      :      0.80s CPU      0.82s WALL (       1 calls)
     potinit      :      0.35s CPU      0.36s WALL (       1 calls)

     Called by electrons:
     c_bands      :     17.86s CPU     18.44s WALL (       7 calls)
     sum_band     :      3.19s CPU      3.23s WALL (       7 calls)
     v_of_rho     :      0.16s CPU      0.16s WALL (       7 calls)
     newd         :      0.20s CPU      0.22s WALL (       7 calls)
     PAW_pot      :      0.73s CPU      0.76s WALL (       7 calls)
     mix_rho      :      0.02s CPU      0.02s WALL (       7 calls)

     Called by c_bands:
     init_us_2    :      0.36s CPU      0.38s WALL (    1088 calls)
     cegterg      :     17.36s CPU     17.94s WALL (     448 calls)

     Called by sum_band:
     sum_band:bec :      0.00s CPU      0.01s WALL (     448 calls)
     addusdens    :      0.24s CPU      0.24s WALL (       7 calls)

     Called by *egterg:
     h_psi        :     15.96s CPU     16.45s WALL (    1517 calls)
     s_psi        :      0.28s CPU      0.29s WALL (    1517 calls)
     g_psi        :      0.03s CPU      0.04s WALL (    1005 calls)
     cdiaghg      :      0.56s CPU      0.62s WALL (    1389 calls)

     Called by h_psi:
     h_psi:pot    :     15.91s CPU     16.42s WALL (    1517 calls)
     h_psi:calbec :      0.38s CPU      0.44s WALL (    1517 calls)
     vloc_psi     :     15.18s CPU     15.66s WALL (    1517 calls)
     add_vuspsi   :      0.34s CPU      0.31s WALL (    1517 calls)

     General routines
     calbec       :      0.57s CPU      0.65s WALL (    2285 calls)
     fft          :      0.26s CPU      0.25s WALL (     137 calls)
     ffts         :      0.01s CPU      0.01s WALL (      14 calls)
     fftw         :     17.07s CPU     17.48s WALL (   29294 calls)
     interpolate  :      0.02s CPU      0.02s WALL (      14 calls)
     davcio       :      0.00s CPU      0.00s WALL (      64 calls)

     Parallel routines
     fft_scatter  :      4.20s CPU      4.32s WALL (   29445 calls)

     PWSCF        :    27.99s CPU        28.83s WALL


   This run was terminated on:  13:45:39   9Jun2017            

=------------------------------------------------------------------------------=
   JOB DONE.
=------------------------------------------------------------------------------=
