
     Program PWSCF v.6.0 (svn rev. 13079) starts on  9Jun2017 at 13:42: 9 

     This program is part of the open-source Quantum ESPRESSO suite
     for quantum simulation of materials; please cite
         "P. Giannozzi et al., J. Phys.:Condens. Matter 21 395502 (2009);
          URL http://www.quantum-espresso.org", 
     in publications or presentations arising from this work. More details at
     http://www.quantum-espresso.org/quote

     Parallel version (MPI), running on     4 processors
     R & G space division:  proc/nbgrp/npool/nimage =       4
     Waiting for input...
     Reading input from standard input
Warning: card &IONS ignored
Warning: card ION_DYNAMICS='BFGS', ignored
Warning: card / ignored
Warning: card &CELL ignored
Warning: card CELL_DYNAMICS='BFGS', ignored
Warning: card PRESS = 0.0, ignored
Warning: card CELL_FACTOR = 2.0, ignored
Warning: card / ignored

     Current dimensions of program PWSCF are:
     Max number of different atomic species (ntypx) = 10
     Max number of k-points (npk) =  40000
     Max angular momentum in pseudopotentials (lmaxx) =  3
               file Al.pbe-nl-kjpaw_psl.1.0.0.UPF: wavefunction(s)  3S 3P renormalized
               file Al.pbe-nl-kjpaw_psl.1.0.0.UPF: wavefunction(s)  3S 3P renormalized
               file Al.pbe-nl-kjpaw_psl.1.0.0.UPF: wavefunction(s)  3S 3P renormalized
               file Al.pbe-nl-kjpaw_psl.1.0.0.UPF: wavefunction(s)  3S 3P renormalized

     Subspace diagonalization in iterative solution of the eigenvalue problem:
     a serial algorithm will be used


     Parallelization info
     --------------------
     sticks:   dense  smooth     PW     G-vecs:    dense   smooth      PW
     Min         232     163     49                 5293     3099     527
     Max         234     165     50                 5294     3100     528
     Sum         933     657    197                21175    12397    2109



     bravais-lattice index     =            0
     lattice parameter (alat)  =       7.6205  a.u.
     unit-cell volume          =     442.5300 (a.u.)^3
     number of atoms/cell      =            4
     number of atomic types    =            4
     number of electrons       =        12.00
     number of Kohn-Sham states=           10
     kinetic-energy cutoff     =      35.0000  Ry
     charge density cutoff     =     200.0000  Ry
     convergence threshold     =      1.0E-06
     mixing beta               =       0.3000
     number of iterations used =           10  TF        mixing
     Exchange-correlation      =  SLA  PW   PBX  PBC ( 1  4  3  4 0 0)

     celldm(1)=   7.620455  celldm(2)=   0.000000  celldm(3)=   0.000000
     celldm(4)=   0.000000  celldm(5)=   0.000000  celldm(6)=   0.000000

     crystal axes: (cart. coord. in units of alat)
               a(1) = (   1.002000   0.000000   0.000000 )  
               a(2) = (   0.000000   0.998000   0.000000 )  
               a(3) = (   0.000000   0.000000   1.000004 )  

     reciprocal axes: (cart. coord. in units 2 pi/alat)
               b(1) = (  0.998004  0.000000  0.000000 )  
               b(2) = (  0.000000  1.002004  0.000000 )  
               b(3) = (  0.000000  0.000000  0.999996 )  


     PseudoPot. # 1 for Al read from file:
     /home/ben/espresso/pp/Al.pbe-nl-kjpaw_psl.1.0.0.UPF
     MD5 check sum: 339dbea23cf3ab9a065ad45c0f9085d7
     Pseudo is Projector augmented-wave + core cor, Zval =  3.0
     Generated using "atomic" code by A. Dal Corso  v.5.1
     Shape of augmentation charge: PSQ
     Using radial grid of 1135 points,  4 beta functions with: 
                l(1) =   0
                l(2) =   0
                l(3) =   1
                l(4) =   1
     Q(r) pseudized with 0 coefficients 


     PseudoPot. # 2 for Al read from file:
     /home/ben/espresso/pp/Al.pbe-nl-kjpaw_psl.1.0.0.UPF
     MD5 check sum: 339dbea23cf3ab9a065ad45c0f9085d7
     Pseudo is Projector augmented-wave + core cor, Zval =  3.0
     Generated using "atomic" code by A. Dal Corso  v.5.1
     Shape of augmentation charge: PSQ
     Using radial grid of 1135 points,  4 beta functions with: 
                l(1) =   0
                l(2) =   0
                l(3) =   1
                l(4) =   1
     Q(r) pseudized with 0 coefficients 


     PseudoPot. # 3 for Al read from file:
     /home/ben/espresso/pp/Al.pbe-nl-kjpaw_psl.1.0.0.UPF
     MD5 check sum: 339dbea23cf3ab9a065ad45c0f9085d7
     Pseudo is Projector augmented-wave + core cor, Zval =  3.0
     Generated using "atomic" code by A. Dal Corso  v.5.1
     Shape of augmentation charge: PSQ
     Using radial grid of 1135 points,  4 beta functions with: 
                l(1) =   0
                l(2) =   0
                l(3) =   1
                l(4) =   1
     Q(r) pseudized with 0 coefficients 


     PseudoPot. # 4 for Al read from file:
     /home/ben/espresso/pp/Al.pbe-nl-kjpaw_psl.1.0.0.UPF
     MD5 check sum: 339dbea23cf3ab9a065ad45c0f9085d7
     Pseudo is Projector augmented-wave + core cor, Zval =  3.0
     Generated using "atomic" code by A. Dal Corso  v.5.1
     Shape of augmentation charge: PSQ
     Using radial grid of 1135 points,  4 beta functions with: 
                l(1) =   0
                l(2) =   0
                l(3) =   1
                l(4) =   1
     Q(r) pseudized with 0 coefficients 


     atomic species   valence    mass     pseudopotential
        Al1            3.00    26.98200     Al( 1.00)
        Al2            3.00    26.98200     Al( 1.00)
        Al3            3.00    26.98200     Al( 1.00)
        Al4            3.00    26.98200     Al( 1.00)

      8 Sym. Ops., with inversion, found



   Cartesian axes

     site n.     atom                  positions (alat units)
         1           Al1 tau(   1) = (   0.0000000   0.0000000   0.0000000  )
         2           Al2 tau(   2) = (   0.5010000   0.4990000   0.0000000  )
         3           Al3 tau(   3) = (   0.5010000   0.0000000   0.5000020  )
         4           Al4 tau(   4) = (   0.0000000   0.4990000   0.5000020  )

     number of k points=    64  Marzari-Vanderbilt smearing, width (Ry)=  0.0200
                       cart. coord. in units 2pi/alat
        k(    1) = (   0.0712860   0.0715717   0.0714283), wk =   0.0466472
        k(    2) = (   0.0712860   0.0715717   0.2142849), wk =   0.0466472
        k(    3) = (   0.0712860   0.0715717   0.3571414), wk =   0.0466472
        k(    4) = (   0.0712860   0.0715717  -0.4999980), wk =   0.0233236
        k(    5) = (   0.0712860   0.2147151   0.0714283), wk =   0.0466472
        k(    6) = (   0.0712860   0.2147151   0.2142849), wk =   0.0466472
        k(    7) = (   0.0712860   0.2147151   0.3571414), wk =   0.0466472
        k(    8) = (   0.0712860   0.2147151  -0.4999980), wk =   0.0233236
        k(    9) = (   0.0712860   0.3578586   0.0714283), wk =   0.0466472
        k(   10) = (   0.0712860   0.3578586   0.2142849), wk =   0.0466472
        k(   11) = (   0.0712860   0.3578586   0.3571414), wk =   0.0466472
        k(   12) = (   0.0712860   0.3578586  -0.4999980), wk =   0.0233236
        k(   13) = (   0.0712860  -0.5010020   0.0714283), wk =   0.0233236
        k(   14) = (   0.0712860  -0.5010020   0.2142849), wk =   0.0233236
        k(   15) = (   0.0712860  -0.5010020   0.3571414), wk =   0.0233236
        k(   16) = (   0.0712860  -0.5010020  -0.4999980), wk =   0.0116618
        k(   17) = (   0.2138580   0.0715717   0.0714283), wk =   0.0466472
        k(   18) = (   0.2138580   0.0715717   0.2142849), wk =   0.0466472
        k(   19) = (   0.2138580   0.0715717   0.3571414), wk =   0.0466472
        k(   20) = (   0.2138580   0.0715717  -0.4999980), wk =   0.0233236
        k(   21) = (   0.2138580   0.2147151   0.0714283), wk =   0.0466472
        k(   22) = (   0.2138580   0.2147151   0.2142849), wk =   0.0466472
        k(   23) = (   0.2138580   0.2147151   0.3571414), wk =   0.0466472
        k(   24) = (   0.2138580   0.2147151  -0.4999980), wk =   0.0233236
        k(   25) = (   0.2138580   0.3578586   0.0714283), wk =   0.0466472
        k(   26) = (   0.2138580   0.3578586   0.2142849), wk =   0.0466472
        k(   27) = (   0.2138580   0.3578586   0.3571414), wk =   0.0466472
        k(   28) = (   0.2138580   0.3578586  -0.4999980), wk =   0.0233236
        k(   29) = (   0.2138580  -0.5010020   0.0714283), wk =   0.0233236
        k(   30) = (   0.2138580  -0.5010020   0.2142849), wk =   0.0233236
        k(   31) = (   0.2138580  -0.5010020   0.3571414), wk =   0.0233236
        k(   32) = (   0.2138580  -0.5010020  -0.4999980), wk =   0.0116618
        k(   33) = (   0.3564300   0.0715717   0.0714283), wk =   0.0466472
        k(   34) = (   0.3564300   0.0715717   0.2142849), wk =   0.0466472
        k(   35) = (   0.3564300   0.0715717   0.3571414), wk =   0.0466472
        k(   36) = (   0.3564300   0.0715717  -0.4999980), wk =   0.0233236
        k(   37) = (   0.3564300   0.2147151   0.0714283), wk =   0.0466472
        k(   38) = (   0.3564300   0.2147151   0.2142849), wk =   0.0466472
        k(   39) = (   0.3564300   0.2147151   0.3571414), wk =   0.0466472
        k(   40) = (   0.3564300   0.2147151  -0.4999980), wk =   0.0233236
        k(   41) = (   0.3564300   0.3578586   0.0714283), wk =   0.0466472
        k(   42) = (   0.3564300   0.3578586   0.2142849), wk =   0.0466472
        k(   43) = (   0.3564300   0.3578586   0.3571414), wk =   0.0466472
        k(   44) = (   0.3564300   0.3578586  -0.4999980), wk =   0.0233236
        k(   45) = (   0.3564300  -0.5010020   0.0714283), wk =   0.0233236
        k(   46) = (   0.3564300  -0.5010020   0.2142849), wk =   0.0233236
        k(   47) = (   0.3564300  -0.5010020   0.3571414), wk =   0.0233236
        k(   48) = (   0.3564300  -0.5010020  -0.4999980), wk =   0.0116618
        k(   49) = (  -0.4990020   0.0715717   0.0714283), wk =   0.0233236
        k(   50) = (  -0.4990020   0.0715717   0.2142849), wk =   0.0233236
        k(   51) = (  -0.4990020   0.0715717   0.3571414), wk =   0.0233236
        k(   52) = (  -0.4990020   0.0715717  -0.4999980), wk =   0.0116618
        k(   53) = (  -0.4990020   0.2147151   0.0714283), wk =   0.0233236
        k(   54) = (  -0.4990020   0.2147151   0.2142849), wk =   0.0233236
        k(   55) = (  -0.4990020   0.2147151   0.3571414), wk =   0.0233236
        k(   56) = (  -0.4990020   0.2147151  -0.4999980), wk =   0.0116618
        k(   57) = (  -0.4990020   0.3578586   0.0714283), wk =   0.0233236
        k(   58) = (  -0.4990020   0.3578586   0.2142849), wk =   0.0233236
        k(   59) = (  -0.4990020   0.3578586   0.3571414), wk =   0.0233236
        k(   60) = (  -0.4990020   0.3578586  -0.4999980), wk =   0.0116618
        k(   61) = (  -0.4990020  -0.5010020   0.0714283), wk =   0.0116618
        k(   62) = (  -0.4990020  -0.5010020   0.2142849), wk =   0.0116618
        k(   63) = (  -0.4990020  -0.5010020   0.3571414), wk =   0.0116618
        k(   64) = (  -0.4990020  -0.5010020  -0.4999980), wk =   0.0058309

     Dense  grid:    21175 G-vectors     FFT dimensions: (  36,  36,  36)

     Smooth grid:    12397 G-vectors     FFT dimensions: (  30,  30,  30)

     Estimated max dynamical RAM per process >       8.01Mb

     Estimated total allocated dynamical RAM >      32.05Mb

     Initial potential from superposition of free atoms

     starting charge   11.99084, renormalised to   12.00000
     Starting wfc are   16 randomized atomic wfcs
     Checking if some PAW data can be deallocated... 

     total cpu time spent up to now is        3.1 secs

     per-process dynamical memory:    17.3 Mb

     Self-consistent Calculation

     iteration #  1     ecut=    35.00 Ry     beta=0.30
     Davidson diagonalization with overlap
     ethr =  1.00E-02,  avg # of iterations =  3.3

     Threshold (ethr) on eigenvalues was too large:
     Diagonalizing with lowered threshold

     Davidson diagonalization with overlap
     ethr =  1.99E-04,  avg # of iterations =  3.1

     total cpu time spent up to now is       10.1 secs

     total energy              =    -158.01020852 Ry
     Harris-Foulkes estimate   =    -158.01231194 Ry
     estimated scf accuracy    <       0.02306915 Ry

     iteration #  2     ecut=    35.00 Ry     beta=0.30
     Davidson diagonalization with overlap
     ethr =  1.92E-04,  avg # of iterations =  1.0

     total cpu time spent up to now is       15.0 secs

     total energy              =    -158.00584466 Ry
     Harris-Foulkes estimate   =    -158.01031926 Ry
     estimated scf accuracy    <       0.01436874 Ry

     iteration #  3     ecut=    35.00 Ry     beta=0.30
     Davidson diagonalization with overlap
     ethr =  1.20E-04,  avg # of iterations =  1.0

     total cpu time spent up to now is       19.6 secs

     total energy              =    -158.00612177 Ry
     Harris-Foulkes estimate   =    -158.00610847 Ry
     estimated scf accuracy    <       0.00003645 Ry

     iteration #  4     ecut=    35.00 Ry     beta=0.30
     Davidson diagonalization with overlap
     ethr =  3.04E-07,  avg # of iterations =  4.8

     total cpu time spent up to now is       22.3 secs

     total energy              =    -158.00619967 Ry
     Harris-Foulkes estimate   =    -158.00618290 Ry
     estimated scf accuracy    <       0.00001697 Ry

     iteration #  5     ecut=    35.00 Ry     beta=0.30
     Davidson diagonalization with overlap
     ethr =  1.41E-07,  avg # of iterations =  1.0

     total cpu time spent up to now is       23.8 secs

     total energy              =    -158.00619762 Ry
     Harris-Foulkes estimate   =    -158.00620057 Ry
     estimated scf accuracy    <       0.00000633 Ry

     iteration #  6     ecut=    35.00 Ry     beta=0.30
     Davidson diagonalization with overlap
     ethr =  5.27E-08,  avg # of iterations =  2.0

     total cpu time spent up to now is       25.6 secs

     End of self-consistent calculation

          k = 0.0713 0.0716 0.0714 (  1535 PWs)   bands (ev):

    -3.0739   4.3894   4.4172   4.4453   7.1943   7.2363   7.2786  11.5581
    11.5849  11.6114

          k = 0.0713 0.0716 0.2143 (  1542 PWs)   bands (ev):

    -2.7031   2.3778   4.7373   4.7930   7.5367   7.6196   9.5992   9.6512
     9.9128  11.9308

          k = 0.0713 0.0716 0.3571 (  1541 PWs)   bands (ev):

    -1.9644   0.5898   5.4302   5.4852   7.7983   7.8324   8.3334   8.3951
    10.7856  10.8674

          k = 0.0713 0.0716-0.5000 (  1540 PWs)   bands (ev):

    -0.8637  -0.8634   6.3896   6.3899   6.6058   6.6062   9.0280   9.0282
     9.7822   9.7828

          k = 0.0713 0.2147 0.0714 (  1543 PWs)   bands (ev):

    -2.7016   2.3991   4.7387   4.7663   7.5380   7.5793   9.6189   9.6448
     9.9639  11.9057

          k = 0.0713 0.2147 0.2143 (  1547 PWs)   bands (ev):

    -2.3318   2.7356   2.7553   5.0846   7.5290   8.0694   9.8586   9.8677
    10.3352  10.3747

          k = 0.0713 0.2147 0.3571 (  1550 PWs)   bands (ev):

    -1.5950   0.9526   3.4651   5.7117   5.9961   8.2048   8.6467  10.6193
    10.7388  11.3843

          k = 0.0713 0.2147-0.5000 (  1548 PWs)   bands (ev):

    -0.4972  -0.4968   4.5205   4.5208   6.8321   6.8325   9.6634   9.6637
    11.6497  11.6504

          k = 0.0713 0.3579 0.0714 (  1541 PWs)   bands (ev):

    -1.9599   0.6042   5.4342   5.4616   7.8054   7.8219   8.3342   8.3645
    10.7986  10.8394

          k = 0.0713 0.3579 0.2143 (  1549 PWs)   bands (ev):

    -1.5920   0.9656   3.4483   5.7119   5.9919   8.2168   8.6494  10.6034
    10.7194  11.3694

          k = 0.0713 0.3579 0.3571 (  1556 PWs)   bands (ev):

    -0.8590   1.6755   1.6855   4.1716   6.4907   8.9013   8.9108   9.3461
    11.3115  11.7167

          k = 0.0713 0.3579-0.5000 (  1558 PWs)   bands (ev):

     0.2332   0.2336   2.7580   2.7584   7.5253   7.5257   9.9431   9.9435
    10.3788  10.3791

          k = 0.0713-0.5010 0.0714 (  1544 PWs)   bands (ev):

    -0.8549  -0.8547   6.3867   6.3868   6.5979   6.5981   9.0174   9.0175
     9.7675   9.7677

          k = 0.0713-0.5010 0.2143 (  1544 PWs)   bands (ev):

    -0.4898  -0.4896   4.5082   4.5083   6.8390   6.8392   9.6697   9.6699
    11.6376  11.6385

          k = 0.0713-0.5010 0.3571 (  1554 PWs)   bands (ev):

     0.2377   0.2378   2.7525   2.7526   7.5295   7.5297   9.9378   9.9380
    10.3830  10.3831

          k = 0.0713-0.5010-0.5000 (  1556 PWs)   bands (ev):

     1.3216   1.3218   1.3220   1.3221   8.5641   8.5644   8.5647   8.5647
    11.4131  11.4134

          k = 0.2139 0.0716 0.0714 (  1542 PWs)   bands (ev):

    -2.7046   2.3568   4.7636   4.7916   7.5767   7.6183   9.6055   9.6317
     9.8622  11.9556

          k = 0.2139 0.0716 0.2143 (  1547 PWs)   bands (ev):

    -2.3347   2.7132   2.7328   5.1371   7.5166   8.1231   9.8784   9.8841
    10.2991  10.3350

          k = 0.2139 0.0716 0.3571 (  1545 PWs)   bands (ev):

    -1.5979   0.9497   3.4232   5.7331   5.9866   8.2553   8.7275  10.6320
    10.7128  11.3905

          k = 0.2139 0.0716-0.5000 (  1544 PWs)   bands (ev):

    -0.5001  -0.4997   4.4793   4.4797   6.8836   6.8840   9.7421   9.7424
    11.6617  11.6621

          k = 0.2139 0.2147 0.0714 (  1547 PWs)   bands (ev):

    -2.3333   2.7146   2.7539   5.1107   7.5240   8.0950   9.8642   9.8790
    10.2988  10.3743

          k = 0.2139 0.2147 0.2143 (  1547 PWs)   bands (ev):

    -1.9644   3.0700   3.0895   3.1092   7.9651   7.9838   8.0022  10.5921
    10.6412  10.6908

          k = 0.2139 0.2147 0.3571 (  1546 PWs)   bands (ev):

    -1.2294   1.3117   3.7766   3.8153   6.2517   6.2896   8.6839  11.0897
    11.2617  11.3593

          k = 0.2139 0.2147-0.5000 (  1550 PWs)   bands (ev):

    -0.1344  -0.1340   4.7204   4.7207   5.0060   5.0065   9.7203   9.7207
    12.0766  12.0768

          k = 0.2139 0.3579 0.0714 (  1548 PWs)   bands (ev):

    -1.5935   0.9641   3.4275   5.7237   5.9861   8.2420   8.6896  10.6097
    10.7054  11.3735

          k = 0.2139 0.3579 0.2143 (  1544 PWs)   bands (ev):

    -1.2265   1.3246   3.7794   3.7987   6.2641   6.2829   8.6678  11.0832
    11.2641  11.3127

          k = 0.2139 0.3579 0.3571 (  1542 PWs)   bands (ev):

    -0.4953   2.0327   2.0427   4.3761   4.6544   6.9517   6.9613   9.3846
    11.9572  14.1152

          k = 0.2139 0.3579-0.5000 (  1544 PWs)   bands (ev):

     0.5943   0.5946   3.1111   3.1114   5.5592   5.5596   8.0043   8.0047
    12.9574  12.9577

          k = 0.2139-0.5010 0.0714 (  1544 PWs)   bands (ev):

    -0.4912  -0.4911   4.4877   4.4879   6.8646   6.8647   9.7089   9.7090
    11.6436  11.6438

          k = 0.2139-0.5010 0.2143 (  1552 PWs)   bands (ev):

    -0.1270  -0.1269   4.7188   4.7189   5.0024   5.0026   9.7084   9.7085
    12.0621  12.0621

          k = 0.2139-0.5010 0.3571 (  1544 PWs)   bands (ev):

     0.5987   0.5988   3.1056   3.1057   5.5634   5.5636   7.9990   7.9991
    12.9614  12.9615

          k = 0.2139-0.5010-0.5000 (  1552 PWs)   bands (ev):

     1.6798   1.6800   1.6802   1.6803   6.6103   6.6106   6.6108   6.6109
    13.9681  13.9685

          k = 0.3564 0.0716 0.0714 (  1539 PWs)   bands (ev):

    -1.9687   0.5755   5.4535   5.4811   7.8096   7.8274   8.3619   8.3934
    10.8134  10.8545

          k = 0.3564 0.0716 0.2143 (  1545 PWs)   bands (ev):

    -1.6008   0.9369   3.4399   5.7342   5.9894   8.2434   8.7248  10.6477
    10.7376  11.3997

          k = 0.3564 0.0716 0.3571 (  1559 PWs)   bands (ev):

    -0.8677   1.6570   1.6670   4.1439   6.5370   8.9372   8.9466   9.4223
    11.3370  11.7819

          k = 0.3564 0.0716-0.5000 (  1558 PWs)   bands (ev):

     0.2246   0.2249   2.7298   2.7302   7.5712   7.5716   9.9691   9.9695
    10.4549  10.4552

          k = 0.3564 0.2147 0.0714 (  1547 PWs)   bands (ev):

    -1.5993   0.9383   3.4609   5.7245   5.9932   8.2180   8.6843  10.6413
    10.7499  11.3975

          k = 0.3564 0.2147 0.2143 (  1545 PWs)   bands (ev):

    -1.2323   1.2989   3.7931   3.8126   6.2584   6.2774   8.6998  11.0962
    11.3079  11.3569

          k = 0.3564 0.2147 0.3571 (  1541 PWs)   bands (ev):

    -0.5011   2.0172   2.0270   4.3811   4.6574   6.9746   6.9842   9.3977
    12.0508  14.1272

          k = 0.3564 0.2147-0.5000 (  1546 PWs)   bands (ev):

     0.5885   0.5889   3.0859   3.0862   5.5919   5.5923   8.0176   8.0180
    13.0495  13.0498

          k = 0.3564 0.3579 0.0714 (  1559 PWs)   bands (ev):

    -0.8633   1.6613   1.6813   4.1579   6.5137   8.9144   8.9333   9.3840
    11.3241  11.7447

          k = 0.3564 0.3579 0.2143 (  1541 PWs)   bands (ev):

    -0.4982   2.0200   2.0399   4.3794   4.6551   6.9583   6.9775   9.3911
    12.0038  14.1402

          k = 0.3564 0.3579 0.3571 (  1546 PWs)   bands (ev):

     0.2294   2.7335   2.7433   2.7532   5.2263   5.2360   5.2456   7.6784
    14.9440  14.9995

          k = 0.3564 0.3579-0.5000 (  1544 PWs)   bands (ev):

     1.3135   1.3139   3.6924   3.6927   3.9435   3.9439   6.2862   6.2866
    15.7880  15.7882

          k = 0.3564-0.5010 0.0714 (  1558 PWs)   bands (ev):

     0.2334   0.2335   2.7384   2.7386   7.5523   7.5525   9.9507   9.9509
    10.4209  10.4210

          k = 0.3564-0.5010 0.2143 (  1546 PWs)   bands (ev):

     0.5958   0.5960   3.0930   3.0932   5.5797   5.5799   8.0056   8.0057
    13.0072  13.0074

          k = 0.3564-0.5010 0.3571 (  1546 PWs)   bands (ev):

     1.3179   1.3181   3.6922   3.6923   3.9426   3.9428   6.2808   6.2810
    15.7722  15.7724

          k = 0.3564-0.5010-0.5000 (  1556 PWs)   bands (ev):

     2.3927   2.3928   2.3931   2.3932   4.8801   4.8803   4.8806   4.8806
    16.8268  16.8270

          k =-0.4990 0.0716 0.0714 (  1540 PWs)   bands (ev):

    -0.8724  -0.8721   6.3978   6.3980   6.6086   6.6090   9.0422   9.0423
     9.7935   9.7939

          k =-0.4990 0.0716 0.2143 (  1544 PWs)   bands (ev):

    -0.5072  -0.5070   4.4916   4.4919   6.8769   6.8772   9.7361   9.7363
    11.6736  11.6745

          k =-0.4990 0.0716 0.3571 (  1556 PWs)   bands (ev):

     0.2203   0.2206   2.7355   2.7357   7.5672   7.5675   9.9745   9.9748
    10.4509  10.4511

          k =-0.4990 0.0716-0.5000 (  1552 PWs)   bands (ev):

     1.3043   1.3047   1.3047   1.3050   8.6014   8.6018   8.6019   8.6021
    11.4813  11.4816

          k =-0.4990 0.2147 0.0714 (  1546 PWs)   bands (ev):

    -0.5058  -0.5055   4.5123   4.5126   6.8510   6.8513   9.6965   9.6968
    11.6673  11.6676

          k =-0.4990 0.2147 0.2143 (  1548 PWs)   bands (ev):

    -0.1415  -0.1413   4.7241   4.7243   5.0078   5.0082   9.7322   9.7325
    12.0978  12.0980

          k =-0.4990 0.2147 0.3571 (  1544 PWs)   bands (ev):

     0.5842   0.5845   3.0915   3.0918   5.5879   5.5882   8.0230   8.0233
    13.0457  13.0460

          k =-0.4990 0.2147-0.5000 (  1552 PWs)   bands (ev):

     1.6655   1.6658   1.6659   1.6661   6.6346   6.6350   6.6351   6.6353
    14.0528  14.0533

          k =-0.4990 0.3579 0.0714 (  1560 PWs)   bands (ev):

     0.2247   0.2249   2.7496   2.7499   7.5441   7.5444   9.9614   9.9617
    10.4127  10.4129

          k =-0.4990 0.3579 0.2143 (  1546 PWs)   bands (ev):

     0.5871   0.5874   3.1041   3.1044   5.5714   5.5717   8.0164   8.0167
    12.9994  12.9997

          k =-0.4990 0.3579 0.3571 (  1544 PWs)   bands (ev):

     1.3093   1.3096   3.6935   3.6937   3.9439   3.9443   6.2918   6.2921
    15.8189  15.8191

          k =-0.4990 0.3579-0.5000 (  1556 PWs)   bands (ev):

     2.3841   2.3844   2.3845   2.3848   4.8911   4.8914   4.8915   4.8918
    16.9274  16.9275

          k =-0.4990-0.5010 0.0714 (  1556 PWs)   bands (ev):

     1.3131   1.3133   1.3134   1.3135   8.5827   8.5830   8.5832   8.5832
    11.4472  11.4473

          k =-0.4990-0.5010 0.2143 (  1552 PWs)   bands (ev):

     1.6728   1.6730   1.6731   1.6732   6.6225   6.6227   6.6229   6.6229
    14.0103  14.0106

          k =-0.4990-0.5010 0.3571 (  1556 PWs)   bands (ev):

     2.3885   2.3887   2.3888   2.3889   4.8856   4.8859   4.8860   4.8861
    16.8768  16.8769

          k =-0.4990-0.5010-0.5000 (  1568 PWs)   bands (ev):

     3.3488   3.3489   3.3490   3.3493   3.5812   3.5818   3.5818   3.5820
    19.3928  19.3937

     the Fermi energy is     7.9582 ev

!    total energy              =    -158.00619821 Ry
     Harris-Foulkes estimate   =    -158.00619837 Ry
     estimated scf accuracy    <       0.00000008 Ry

     total all-electron energy =     -1942.577326 Ry

     The total energy is the sum of the following terms:

     one-electron contribution =      12.71382126 Ry
     hartree contribution      =       0.02406922 Ry
     xc contribution           =     -10.37534815 Ry
     ewald contribution        =     -21.65946878 Ry
     one-center paw contrib.   =    -138.70942965 Ry
     smearing contrib. (-TS)   =       0.00015790 Ry

     convergence has been achieved in   6 iterations

     Forces acting on atoms (Ry/au):

     atom    1 type  1   force =     0.00000000    0.00000000    0.00000000
     atom    2 type  2   force =     0.00000000    0.00000000    0.00000000
     atom    3 type  3   force =     0.00000000    0.00000000    0.00000000
     atom    4 type  4   force =     0.00000000    0.00000000    0.00000000

     Total force =     0.000000     Total SCF correction =     0.000000


     entering subroutine stress ...

          total   stress  (Ry/bohr**3)                   (kbar)     P=   -0.15
  -0.00000885   0.00000000   0.00000000         -1.30      0.00      0.00
   0.00000000   0.00000624   0.00000000          0.00      0.92      0.00
   0.00000000   0.00000000  -0.00000043          0.00      0.00     -0.06


     Writing output data file template.save

     init_run     :      1.95s CPU      2.00s WALL (       1 calls)
     electrons    :     22.00s CPU     22.56s WALL (       1 calls)
     forces       :      0.76s CPU      0.76s WALL (       1 calls)
     stress       :      1.96s CPU      2.05s WALL (       1 calls)

     Called by init_run:
     wfcinit      :      0.76s CPU      0.77s WALL (       1 calls)
     potinit      :      0.30s CPU      0.31s WALL (       1 calls)

     Called by electrons:
     c_bands      :     17.26s CPU     17.74s WALL (       7 calls)
     sum_band     :      3.64s CPU      3.71s WALL (       7 calls)
     v_of_rho     :      0.15s CPU      0.15s WALL (       7 calls)
     newd         :      0.21s CPU      0.22s WALL (       7 calls)
     PAW_pot      :      0.78s CPU      0.80s WALL (       7 calls)
     mix_rho      :      0.02s CPU      0.02s WALL (       7 calls)

     Called by c_bands:
     init_us_2    :      0.43s CPU      0.41s WALL (    1088 calls)
     cegterg      :     16.73s CPU     17.21s WALL (     448 calls)

     Called by sum_band:
     sum_band:bec :      0.01s CPU      0.01s WALL (     448 calls)
     addusdens    :      0.24s CPU      0.24s WALL (       7 calls)

     Called by *egterg:
     h_psi        :     15.44s CPU     15.95s WALL (    1549 calls)
     s_psi        :      0.21s CPU      0.26s WALL (    1549 calls)
     g_psi        :      0.04s CPU      0.04s WALL (    1037 calls)
     cdiaghg      :      0.51s CPU      0.51s WALL (    1421 calls)

     Called by h_psi:
     h_psi:pot    :     15.41s CPU     15.91s WALL (    1549 calls)
     h_psi:calbec :      0.44s CPU      0.45s WALL (    1549 calls)
     vloc_psi     :     14.71s CPU     15.16s WALL (    1549 calls)
     add_vuspsi   :      0.25s CPU      0.30s WALL (    1549 calls)

     General routines
     calbec       :      0.79s CPU      0.82s WALL (    2317 calls)
     fft          :      0.14s CPU      0.16s WALL (     137 calls)
     ffts         :      0.04s CPU      0.01s WALL (      14 calls)
     fftw         :     16.93s CPU     17.41s WALL (   29394 calls)
     interpolate  :      0.04s CPU      0.02s WALL (      14 calls)
     davcio       :      0.00s CPU      0.00s WALL (      64 calls)

     Parallel routines
     fft_scatter  :      4.46s CPU      4.32s WALL (   29545 calls)

     PWSCF        :    27.84s CPU        28.70s WALL


   This run was terminated on:  13:42:38   9Jun2017            

=------------------------------------------------------------------------------=
   JOB DONE.
=------------------------------------------------------------------------------=
