
     Program PWSCF v.6.0 (svn rev. 13079) starts on  9Jun2017 at 13:43: 8 

     This program is part of the open-source Quantum ESPRESSO suite
     for quantum simulation of materials; please cite
         "P. Giannozzi et al., J. Phys.:Condens. Matter 21 395502 (2009);
          URL http://www.quantum-espresso.org", 
     in publications or presentations arising from this work. More details at
     http://www.quantum-espresso.org/quote

     Parallel version (MPI), running on     4 processors
     R & G space division:  proc/nbgrp/npool/nimage =       4
     Waiting for input...
     Reading input from standard input
Warning: card &IONS ignored
Warning: card ION_DYNAMICS='BFGS', ignored
Warning: card / ignored
Warning: card &CELL ignored
Warning: card CELL_DYNAMICS='BFGS', ignored
Warning: card PRESS = 0.0, ignored
Warning: card CELL_FACTOR = 2.0, ignored
Warning: card / ignored

     Current dimensions of program PWSCF are:
     Max number of different atomic species (ntypx) = 10
     Max number of k-points (npk) =  40000
     Max angular momentum in pseudopotentials (lmaxx) =  3
               file Al.pbe-nl-kjpaw_psl.1.0.0.UPF: wavefunction(s)  3S 3P renormalized
               file Al.pbe-nl-kjpaw_psl.1.0.0.UPF: wavefunction(s)  3S 3P renormalized
               file Al.pbe-nl-kjpaw_psl.1.0.0.UPF: wavefunction(s)  3S 3P renormalized
               file Al.pbe-nl-kjpaw_psl.1.0.0.UPF: wavefunction(s)  3S 3P renormalized

     Subspace diagonalization in iterative solution of the eigenvalue problem:
     a serial algorithm will be used


     Parallelization info
     --------------------
     sticks:   dense  smooth     PW     G-vecs:    dense   smooth      PW
     Min         231     162     50                 5286     3092     532
     Max         232     163     51                 5287     3095     533
     Sum         925     649    203                21147    12373    2131



     bravais-lattice index     =            0
     lattice parameter (alat)  =       7.6205  a.u.
     unit-cell volume          =     442.5300 (a.u.)^3
     number of atoms/cell      =            4
     number of atomic types    =            4
     number of electrons       =        12.00
     number of Kohn-Sham states=           10
     kinetic-energy cutoff     =      35.0000  Ry
     charge density cutoff     =     200.0000  Ry
     convergence threshold     =      1.0E-06
     mixing beta               =       0.3000
     number of iterations used =           10  TF        mixing
     Exchange-correlation      =  SLA  PW   PBX  PBC ( 1  4  3  4 0 0)

     celldm(1)=   7.620455  celldm(2)=   0.000000  celldm(3)=   0.000000
     celldm(4)=   0.000000  celldm(5)=   0.000000  celldm(6)=   0.000000

     crystal axes: (cart. coord. in units of alat)
               a(1) = (   1.006000   0.000000   0.000000 )  
               a(2) = (   0.000000   0.994000   0.000000 )  
               a(3) = (   0.000000   0.000000   1.000036 )  

     reciprocal axes: (cart. coord. in units 2 pi/alat)
               b(1) = (  0.994036  0.000000  0.000000 )  
               b(2) = (  0.000000  1.006036  0.000000 )  
               b(3) = (  0.000000  0.000000  0.999964 )  


     PseudoPot. # 1 for Al read from file:
     /home/ben/espresso/pp/Al.pbe-nl-kjpaw_psl.1.0.0.UPF
     MD5 check sum: 339dbea23cf3ab9a065ad45c0f9085d7
     Pseudo is Projector augmented-wave + core cor, Zval =  3.0
     Generated using "atomic" code by A. Dal Corso  v.5.1
     Shape of augmentation charge: PSQ
     Using radial grid of 1135 points,  4 beta functions with: 
                l(1) =   0
                l(2) =   0
                l(3) =   1
                l(4) =   1
     Q(r) pseudized with 0 coefficients 


     PseudoPot. # 2 for Al read from file:
     /home/ben/espresso/pp/Al.pbe-nl-kjpaw_psl.1.0.0.UPF
     MD5 check sum: 339dbea23cf3ab9a065ad45c0f9085d7
     Pseudo is Projector augmented-wave + core cor, Zval =  3.0
     Generated using "atomic" code by A. Dal Corso  v.5.1
     Shape of augmentation charge: PSQ
     Using radial grid of 1135 points,  4 beta functions with: 
                l(1) =   0
                l(2) =   0
                l(3) =   1
                l(4) =   1
     Q(r) pseudized with 0 coefficients 


     PseudoPot. # 3 for Al read from file:
     /home/ben/espresso/pp/Al.pbe-nl-kjpaw_psl.1.0.0.UPF
     MD5 check sum: 339dbea23cf3ab9a065ad45c0f9085d7
     Pseudo is Projector augmented-wave + core cor, Zval =  3.0
     Generated using "atomic" code by A. Dal Corso  v.5.1
     Shape of augmentation charge: PSQ
     Using radial grid of 1135 points,  4 beta functions with: 
                l(1) =   0
                l(2) =   0
                l(3) =   1
                l(4) =   1
     Q(r) pseudized with 0 coefficients 


     PseudoPot. # 4 for Al read from file:
     /home/ben/espresso/pp/Al.pbe-nl-kjpaw_psl.1.0.0.UPF
     MD5 check sum: 339dbea23cf3ab9a065ad45c0f9085d7
     Pseudo is Projector augmented-wave + core cor, Zval =  3.0
     Generated using "atomic" code by A. Dal Corso  v.5.1
     Shape of augmentation charge: PSQ
     Using radial grid of 1135 points,  4 beta functions with: 
                l(1) =   0
                l(2) =   0
                l(3) =   1
                l(4) =   1
     Q(r) pseudized with 0 coefficients 


     atomic species   valence    mass     pseudopotential
        Al1            3.00    26.98200     Al( 1.00)
        Al2            3.00    26.98200     Al( 1.00)
        Al3            3.00    26.98200     Al( 1.00)
        Al4            3.00    26.98200     Al( 1.00)

      8 Sym. Ops., with inversion, found



   Cartesian axes

     site n.     atom                  positions (alat units)
         1           Al1 tau(   1) = (   0.0000000   0.0000000   0.0000000  )
         2           Al2 tau(   2) = (   0.5030000   0.4970000   0.0000000  )
         3           Al3 tau(   3) = (   0.5030000   0.0000000   0.5000180  )
         4           Al4 tau(   4) = (   0.0000000   0.4970000   0.5000180  )

     number of k points=    64  Marzari-Vanderbilt smearing, width (Ry)=  0.0200
                       cart. coord. in units 2pi/alat
        k(    1) = (   0.0710026   0.0718597   0.0714260), wk =   0.0466472
        k(    2) = (   0.0710026   0.0718597   0.2142780), wk =   0.0466472
        k(    3) = (   0.0710026   0.0718597   0.3571300), wk =   0.0466472
        k(    4) = (   0.0710026   0.0718597  -0.4999820), wk =   0.0233236
        k(    5) = (   0.0710026   0.2155792   0.0714260), wk =   0.0466472
        k(    6) = (   0.0710026   0.2155792   0.2142780), wk =   0.0466472
        k(    7) = (   0.0710026   0.2155792   0.3571300), wk =   0.0466472
        k(    8) = (   0.0710026   0.2155792  -0.4999820), wk =   0.0233236
        k(    9) = (   0.0710026   0.3592986   0.0714260), wk =   0.0466472
        k(   10) = (   0.0710026   0.3592986   0.2142780), wk =   0.0466472
        k(   11) = (   0.0710026   0.3592986   0.3571300), wk =   0.0466472
        k(   12) = (   0.0710026   0.3592986  -0.4999820), wk =   0.0233236
        k(   13) = (   0.0710026  -0.5030181   0.0714260), wk =   0.0233236
        k(   14) = (   0.0710026  -0.5030181   0.2142780), wk =   0.0233236
        k(   15) = (   0.0710026  -0.5030181   0.3571300), wk =   0.0233236
        k(   16) = (   0.0710026  -0.5030181  -0.4999820), wk =   0.0116618
        k(   17) = (   0.2130077   0.0718597   0.0714260), wk =   0.0466472
        k(   18) = (   0.2130077   0.0718597   0.2142780), wk =   0.0466472
        k(   19) = (   0.2130077   0.0718597   0.3571300), wk =   0.0466472
        k(   20) = (   0.2130077   0.0718597  -0.4999820), wk =   0.0233236
        k(   21) = (   0.2130077   0.2155792   0.0714260), wk =   0.0466472
        k(   22) = (   0.2130077   0.2155792   0.2142780), wk =   0.0466472
        k(   23) = (   0.2130077   0.2155792   0.3571300), wk =   0.0466472
        k(   24) = (   0.2130077   0.2155792  -0.4999820), wk =   0.0233236
        k(   25) = (   0.2130077   0.3592986   0.0714260), wk =   0.0466472
        k(   26) = (   0.2130077   0.3592986   0.2142780), wk =   0.0466472
        k(   27) = (   0.2130077   0.3592986   0.3571300), wk =   0.0466472
        k(   28) = (   0.2130077   0.3592986  -0.4999820), wk =   0.0233236
        k(   29) = (   0.2130077  -0.5030181   0.0714260), wk =   0.0233236
        k(   30) = (   0.2130077  -0.5030181   0.2142780), wk =   0.0233236
        k(   31) = (   0.2130077  -0.5030181   0.3571300), wk =   0.0233236
        k(   32) = (   0.2130077  -0.5030181  -0.4999820), wk =   0.0116618
        k(   33) = (   0.3550128   0.0718597   0.0714260), wk =   0.0466472
        k(   34) = (   0.3550128   0.0718597   0.2142780), wk =   0.0466472
        k(   35) = (   0.3550128   0.0718597   0.3571300), wk =   0.0466472
        k(   36) = (   0.3550128   0.0718597  -0.4999820), wk =   0.0233236
        k(   37) = (   0.3550128   0.2155792   0.0714260), wk =   0.0466472
        k(   38) = (   0.3550128   0.2155792   0.2142780), wk =   0.0466472
        k(   39) = (   0.3550128   0.2155792   0.3571300), wk =   0.0466472
        k(   40) = (   0.3550128   0.2155792  -0.4999820), wk =   0.0233236
        k(   41) = (   0.3550128   0.3592986   0.0714260), wk =   0.0466472
        k(   42) = (   0.3550128   0.3592986   0.2142780), wk =   0.0466472
        k(   43) = (   0.3550128   0.3592986   0.3571300), wk =   0.0466472
        k(   44) = (   0.3550128   0.3592986  -0.4999820), wk =   0.0233236
        k(   45) = (   0.3550128  -0.5030181   0.0714260), wk =   0.0233236
        k(   46) = (   0.3550128  -0.5030181   0.2142780), wk =   0.0233236
        k(   47) = (   0.3550128  -0.5030181   0.3571300), wk =   0.0233236
        k(   48) = (   0.3550128  -0.5030181  -0.4999820), wk =   0.0116618
        k(   49) = (  -0.4970179   0.0718597   0.0714260), wk =   0.0233236
        k(   50) = (  -0.4970179   0.0718597   0.2142780), wk =   0.0233236
        k(   51) = (  -0.4970179   0.0718597   0.3571300), wk =   0.0233236
        k(   52) = (  -0.4970179   0.0718597  -0.4999820), wk =   0.0116618
        k(   53) = (  -0.4970179   0.2155792   0.0714260), wk =   0.0233236
        k(   54) = (  -0.4970179   0.2155792   0.2142780), wk =   0.0233236
        k(   55) = (  -0.4970179   0.2155792   0.3571300), wk =   0.0233236
        k(   56) = (  -0.4970179   0.2155792  -0.4999820), wk =   0.0116618
        k(   57) = (  -0.4970179   0.3592986   0.0714260), wk =   0.0233236
        k(   58) = (  -0.4970179   0.3592986   0.2142780), wk =   0.0233236
        k(   59) = (  -0.4970179   0.3592986   0.3571300), wk =   0.0233236
        k(   60) = (  -0.4970179   0.3592986  -0.4999820), wk =   0.0116618
        k(   61) = (  -0.4970179  -0.5030181   0.0714260), wk =   0.0116618
        k(   62) = (  -0.4970179  -0.5030181   0.2142780), wk =   0.0116618
        k(   63) = (  -0.4970179  -0.5030181   0.3571300), wk =   0.0116618
        k(   64) = (  -0.4970179  -0.5030181  -0.4999820), wk =   0.0058309

     Dense  grid:    21147 G-vectors     FFT dimensions: (  36,  36,  36)

     Smooth grid:    12373 G-vectors     FFT dimensions: (  30,  30,  30)

     Estimated max dynamical RAM per process >       8.01Mb

     Estimated total allocated dynamical RAM >      32.03Mb

     Initial potential from superposition of free atoms

     starting charge   11.99084, renormalised to   12.00000
     Starting wfc are   16 randomized atomic wfcs
     Checking if some PAW data can be deallocated... 

     total cpu time spent up to now is       10.7 secs

     per-process dynamical memory:    17.3 Mb

     Self-consistent Calculation

     iteration #  1     ecut=    35.00 Ry     beta=0.30
     Davidson diagonalization with overlap
     ethr =  1.00E-02,  avg # of iterations =  3.3

     Threshold (ethr) on eigenvalues was too large:
     Diagonalizing with lowered threshold

     Davidson diagonalization with overlap
     ethr =  1.99E-04,  avg # of iterations =  3.1

     total cpu time spent up to now is       15.4 secs

     total energy              =    -158.01014248 Ry
     Harris-Foulkes estimate   =    -158.01224485 Ry
     estimated scf accuracy    <       0.02305886 Ry

     iteration #  2     ecut=    35.00 Ry     beta=0.30
     Davidson diagonalization with overlap
     ethr =  1.92E-04,  avg # of iterations =  1.0

     total cpu time spent up to now is       17.0 secs

     total energy              =    -158.00579957 Ry
     Harris-Foulkes estimate   =    -158.01026371 Ry
     estimated scf accuracy    <       0.01435425 Ry

     iteration #  3     ecut=    35.00 Ry     beta=0.30
     Davidson diagonalization with overlap
     ethr =  1.20E-04,  avg # of iterations =  1.0

     total cpu time spent up to now is       18.5 secs

     total energy              =    -158.00607469 Ry
     Harris-Foulkes estimate   =    -158.00606342 Ry
     estimated scf accuracy    <       0.00003649 Ry

     iteration #  4     ecut=    35.00 Ry     beta=0.30
     Davidson diagonalization with overlap
     ethr =  3.04E-07,  avg # of iterations =  4.4

     total cpu time spent up to now is       21.4 secs

     total energy              =    -158.00615313 Ry
     Harris-Foulkes estimate   =    -158.00613569 Ry
     estimated scf accuracy    <       0.00001783 Ry

     iteration #  5     ecut=    35.00 Ry     beta=0.30
     Davidson diagonalization with overlap
     ethr =  1.49E-07,  avg # of iterations =  1.0

     total cpu time spent up to now is       24.0 secs

     total energy              =    -158.00615081 Ry
     Harris-Foulkes estimate   =    -158.00615408 Ry
     estimated scf accuracy    <       0.00000709 Ry

     iteration #  6     ecut=    35.00 Ry     beta=0.30
     Davidson diagonalization with overlap
     ethr =  5.91E-08,  avg # of iterations =  2.0

     total cpu time spent up to now is       30.2 secs

     End of self-consistent calculation

          k = 0.0710 0.0719 0.0714 (  1540 PWs)   bands (ev):

    -3.0739   4.3343   4.4168   4.5021   7.1108   7.2357   7.3637  11.5051
    11.5864  11.6648

          k = 0.0710 0.0719 0.2143 (  1539 PWs)   bands (ev):

    -2.7031   2.3775   4.6824   4.8494   7.4545   7.7029   9.5479   9.7039
     9.9120  11.9323

          k = 0.0710 0.0719 0.3571 (  1541 PWs)   bands (ev):

    -1.9644   0.5896   5.3758   5.5409   7.7582   7.8559   8.2832   8.4638
    10.7051  10.9504

          k = 0.0710 0.0719-0.5000 (  1540 PWs)   bands (ev):

    -0.8638  -0.8634   6.3656   6.3660   6.6309   6.6314   9.0101   9.0103
     9.8018   9.8024

          k = 0.0710 0.2156 0.0714 (  1543 PWs)   bands (ev):

    -2.6986   2.4419   4.6866   4.7687   7.4585   7.5812   9.6074   9.6842
    10.0665  11.8563

          k = 0.0710 0.2156 0.2143 (  1545 PWs)   bands (ev):

    -2.3288   2.7381   2.7980   5.0328   7.5309   8.0275   9.8235   9.8577
    10.3352  10.4612

          k = 0.0710 0.2156 0.3571 (  1553 PWs)   bands (ev):

    -1.5920   0.9553   3.5074   5.6793   6.0177   8.1547   8.5669  10.6078
    10.7397  11.4052

          k = 0.0710 0.2156-0.5000 (  1554 PWs)   bands (ev):

    -0.4943  -0.4939   4.5620   4.5624   6.7814   6.7818   9.5850   9.5853
    11.6380  11.6384

          k = 0.0710 0.3593 0.0714 (  1546 PWs)   bands (ev):

    -1.9510   0.6334   5.3882   5.4694   7.7838   7.8284   8.2813   8.3674
    10.7441  10.8653

          k = 0.0710 0.3593 0.2143 (  1554 PWs)   bands (ev):

    -1.5831   0.9946   3.4565   5.6825   6.0024   8.1914   8.5750  10.5595
    10.6979  11.3428

          k = 0.0710 0.3593 0.3571 (  1555 PWs)   bands (ev):

    -0.8502   1.6840   1.7144   4.1995   6.4453   8.8567   8.8855   9.2708
    11.2869  11.6431

          k = 0.0710 0.3593-0.5000 (  1556 PWs)   bands (ev):

     0.2419   0.2423   2.7865   2.7869   7.4801   7.4806   9.9181   9.9185
    10.3036  10.3039

          k = 0.0710-0.5030 0.0714 (  1552 PWs)   bands (ev):

    -0.8371  -0.8370   6.3692   6.3694   6.5940   6.5942   8.9882   8.9883
     9.7466   9.7468

          k = 0.0710-0.5030 0.2143 (  1552 PWs)   bands (ev):

    -0.4721  -0.4720   4.5246   4.5248   6.8021   6.8022   9.6043   9.6044
    11.6017  11.6019

          k = 0.0710-0.5030 0.3571 (  1558 PWs)   bands (ev):

     0.2552   0.2554   2.7694   2.7696   7.4927   7.4929   9.9018   9.9020
    10.3161  10.3162

          k = 0.0710-0.5030-0.5000 (  1544 PWs)   bands (ev):

     1.3388   1.3391   1.3393   1.3394   8.5277   8.5280   8.5283   8.5283
    11.3459  11.3462

          k = 0.2130 0.0719 0.0714 (  1540 PWs)   bands (ev):

    -2.7074   2.3151   4.7605   4.8454   7.5736   7.6993   9.5666   9.6459
     9.7615  12.0059

          k = 0.2130 0.0719 0.2143 (  1544 PWs)   bands (ev):

    -2.3376   2.6717   2.7297   5.1905   7.4966   8.1854   9.8899   9.8910
    10.2432  10.3346

          k = 0.2130 0.0719 0.3571 (  1543 PWs)   bands (ev):

    -1.6008   0.9467   3.3819   5.7389   5.9939   8.3065   8.8090  10.6461
    10.6650  11.4203

          k = 0.2130 0.0719-0.5000 (  1546 PWs)   bands (ev):

    -0.5030  -0.5026   4.4385   4.4389   6.9358   6.9362   9.8208   9.8212
    11.6753  11.6757

          k = 0.2130 0.2156 0.0714 (  1547 PWs)   bands (ev):

    -2.3331   2.6760   2.7939   5.1104   7.5246   8.0950   9.8410   9.8791
    10.2390  10.4593

          k = 0.2130 0.2156 0.2143 (  1543 PWs)   bands (ev):

    -1.9643   3.0314   3.0893   3.1489   7.9283   7.9849   8.0394  10.4946
    10.6405  10.7908

          k = 0.2130 0.2156 0.3571 (  1548 PWs)   bands (ev):

    -1.2294   1.3116   3.7384   3.8546   6.2142   6.3279   8.6849  11.0906
    11.1649  11.4576

          k = 0.2130 0.2156-0.5000 (  1546 PWs)   bands (ev):

    -0.1344  -0.1340   4.7107   4.7110   5.0167   5.0172   9.7212   9.7217
    12.0439  12.0441

          k = 0.2130 0.3593 0.0714 (  1549 PWs)   bands (ev):

    -1.5874   0.9904   3.3947   5.7224   5.9801   8.2659   8.6945  10.5782
    10.6518  11.3598

          k = 0.2130 0.3593 0.2143 (  1547 PWs)   bands (ev):

    -1.2205   1.3507   3.7469   3.8041   6.2516   6.3075   8.6360  11.0708
    11.1724  11.3168

          k = 0.2130 0.3593 0.3571 (  1548 PWs)   bands (ev):

    -0.4893   2.0384   2.0686   4.3656   4.6577   6.9196   6.9488   9.3722
    11.8645  14.0623

          k = 0.2130 0.3593-0.5000 (  1544 PWs)   bands (ev):

     0.6000   0.6004   3.1366   3.1370   5.5270   5.5274   7.9919   7.9923
    12.8661  12.8665

          k = 0.2130-0.5030 0.0714 (  1546 PWs)   bands (ev):

    -0.4764  -0.4762   4.4638   4.4640   6.8779   6.8781   9.7207   9.7208
    11.6199  11.6201

          k = 0.2130-0.5030 0.2143 (  1550 PWs)   bands (ev):

    -0.1122  -0.1121   4.7112   4.7113   5.0000   5.0002   9.6849   9.6851
    12.0179  12.0180

          k = 0.2130-0.5030 0.3571 (  1546 PWs)   bands (ev):

     0.6133   0.6135   3.1196   3.1198   5.5397   5.5398   7.9754   7.9756
    12.8782  12.8783

          k = 0.2130-0.5030-0.5000 (  1552 PWs)   bands (ev):

     1.6942   1.6944   1.6947   1.6948   6.5866   6.5869   6.5871   6.5872
    13.8846  13.8850

          k = 0.3550 0.0719 0.0714 (  1535 PWs)   bands (ev):

    -1.9774   0.5472   5.4450   5.5290   7.7935   7.8496   8.3597   8.4572
    10.7875  10.9117

          k = 0.3550 0.0719 0.2143 (  1545 PWs)   bands (ev):

    -1.6094   0.9086   3.4313   5.7468   5.9977   8.2712   8.8012  10.6926
    10.7527  11.4338

          k = 0.3550 0.0719 0.3571 (  1563 PWs)   bands (ev):

    -0.8764   1.6289   1.6583   4.1164   6.5842   8.9647   8.9925   9.4993
    11.3634  11.8392

          k = 0.3550 0.0719-0.5000 (  1556 PWs)   bands (ev):

     0.2159   0.2163   2.7018   2.7022   7.6179   7.6184   9.9961   9.9966
    10.5317  10.5320

          k = 0.3550 0.2156 0.0714 (  1551 PWs)   bands (ev):

    -1.6050   0.9130   3.4950   5.7247   6.0015   8.1939   8.6785  10.6730
    10.7838  11.4331

          k = 0.3550 0.2156 0.2143 (  1542 PWs)   bands (ev):

    -1.2380   1.2736   3.7874   3.8464   6.2340   6.2917   8.7323  11.1098
    11.3024  11.4508

          k = 0.3550 0.2156 0.3571 (  1542 PWs)   bands (ev):

    -0.5067   1.9920   2.0213   4.3803   4.6672   6.9889   7.0172   9.4115
    12.1456  14.0652

          k = 0.3550 0.2156-0.5000 (  1542 PWs)   bands (ev):

     0.5828   0.5832   3.0609   3.0613   5.6252   5.6257   8.0316   8.0320
    13.1424  13.1428

          k = 0.3550 0.3593 0.0714 (  1556 PWs)   bands (ev):

    -0.8631   1.6419   1.7017   4.1586   6.5135   8.8955   8.9522   9.3836
    11.3243  11.7267

          k = 0.3550 0.3593 0.2143 (  1543 PWs)   bands (ev):

    -0.4979   2.0006   2.0602   4.3796   4.6556   6.9393   6.9968   9.3915
    12.0032  14.0415

          k = 0.3550 0.3593 0.3571 (  1547 PWs)   bands (ev):

     0.2296   2.7143   2.7434   2.7734   5.2072   5.2367   5.2652   7.6789
    14.8295  14.9983

          k = 0.3550 0.3593-0.5000 (  1546 PWs)   bands (ev):

     1.3136   1.3140   3.6897   3.6900   3.9470   3.9475   6.2869   6.2873
    15.7234  15.7237

          k = 0.3550-0.5030 0.0714 (  1554 PWs)   bands (ev):

     0.2424   0.2426   2.7278   2.7279   7.5604   7.5605   9.9401   9.9402
    10.4287  10.4288

          k = 0.3550-0.5030 0.2143 (  1548 PWs)   bands (ev):

     0.6048   0.6050   3.0824   3.0825   5.5880   5.5882   7.9949   7.9951
    13.0143  13.0145

          k = 0.3550-0.5030 0.3571 (  1546 PWs)   bands (ev):

     1.3268   1.3270   3.6903   3.6904   3.9424   3.9426   6.2702   6.2704
    15.7066  15.7067

          k = 0.3550-0.5030-0.5000 (  1552 PWs)   bands (ev):

     2.4013   2.4015   2.4018   2.4019   4.8695   4.8697   4.8700   4.8700
    16.7270  16.7274

          k =-0.4970 0.0719 0.0714 (  1544 PWs)   bands (ev):

    -0.8896  -0.8893   6.4022   6.4025   6.6269   6.6273   9.0623   9.0624
     9.8250   9.8255

          k =-0.4970 0.0719 0.2143 (  1548 PWs)   bands (ev):

    -0.5244  -0.5241   4.4750   4.4753   6.9159   6.9162   9.8033   9.8035
    11.7104  11.7114

          k =-0.4970 0.0719 0.3571 (  1560 PWs)   bands (ev):

     0.2032   0.2035   2.7185   2.7188   7.6060   7.6063  10.0120  10.0124
    10.5198  10.5200

          k =-0.4970 0.0719-0.5000 (  1556 PWs)   bands (ev):

     1.2873   1.2876   1.2877   1.2880   8.6396   8.6400   8.6401   8.6404
    11.5506  11.5509

          k =-0.4970 0.2156 0.0714 (  1548 PWs)   bands (ev):

    -0.5200  -0.5197   4.5377   4.5380   6.8373   6.8377   9.6837   9.6840
    11.6917  11.6919

          k =-0.4970 0.2156 0.2143 (  1544 PWs)   bands (ev):

    -0.1557  -0.1554   4.7270   4.7272   5.0164   5.0168   9.7565   9.7568
    12.1247  12.1249

          k =-0.4970 0.2156 0.3571 (  1542 PWs)   bands (ev):

     0.5701   0.5704   3.0775   3.0778   5.6131   5.6134   8.0477   8.0480
    13.1313  13.1316

          k =-0.4970 0.2156-0.5000 (  1548 PWs)   bands (ev):

     1.6514   1.6517   1.6518   1.6521   6.6596   6.6600   6.6601   6.6604
    14.1388  14.1392

          k =-0.4970 0.3593 0.0714 (  1558 PWs)   bands (ev):

     0.2164   0.2167   2.7615   2.7618   7.5358   7.5362   9.9722   9.9726
    10.4042  10.4045

          k =-0.4970 0.3593 0.2143 (  1546 PWs)   bands (ev):

     0.5788   0.5792   3.1159   3.1162   5.5632   5.5635   8.0275   8.0278
    12.9911  12.9914

          k =-0.4970 0.3593 0.3571 (  1546 PWs)   bands (ev):

     1.3010   1.3013   3.6942   3.6945   3.9466   3.9470   6.3031   6.3035
    15.8451  15.8453

          k =-0.4970 0.3593-0.5000 (  1552 PWs)   bands (ev):

     2.3758   2.3762   2.3763   2.3765   4.9026   4.9030   4.9031   4.9034
    17.0287  17.0290

          k =-0.4970-0.5030 0.0714 (  1552 PWs)   bands (ev):

     1.3135   1.3137   1.3139   1.3140   8.5827   8.5830   8.5832   8.5832
    11.4471  11.4472

          k =-0.4970-0.5030 0.2143 (  1556 PWs)   bands (ev):

     1.6732   1.6734   1.6736   1.6737   6.6226   6.6229   6.6230   6.6231
    14.0099  14.0102

          k =-0.4970-0.5030 0.3571 (  1552 PWs)   bands (ev):

     2.3889   2.3891   2.3892   2.3893   4.8858   4.8861   4.8863   4.8863
    16.8756  16.8758

          k =-0.4970-0.5030-0.5000 (  1568 PWs)   bands (ev):

     3.3490   3.3491   3.3492   3.3495   3.5816   3.5822   3.5823   3.5825
    19.3047  19.3051

     the Fermi energy is     7.9600 ev

!    total energy              =    -158.00615141 Ry
     Harris-Foulkes estimate   =    -158.00615160 Ry
     estimated scf accuracy    <       0.00000008 Ry

     total all-electron energy =     -1942.577279 Ry

     The total energy is the sum of the following terms:

     one-electron contribution =      12.71411980 Ry
     hartree contribution      =       0.02407793 Ry
     xc contribution           =     -10.37539335 Ry
     ewald contribution        =     -21.65943679 Ry
     one-center paw contrib.   =    -138.70949264 Ry
     smearing contrib. (-TS)   =      -0.00002636 Ry

     convergence has been achieved in   6 iterations

     Forces acting on atoms (Ry/au):

     atom    1 type  1   force =     0.00000000    0.00000000    0.00000000
     atom    2 type  2   force =     0.00000000    0.00000000    0.00000000
     atom    3 type  3   force =     0.00000000    0.00000000    0.00000000
     atom    4 type  4   force =     0.00000000    0.00000000    0.00000000

     Total force =     0.000000     Total SCF correction =     0.000000


     entering subroutine stress ...

          total   stress  (Ry/bohr**3)                   (kbar)     P=   -0.01
  -0.00002043   0.00000000   0.00000000         -3.01      0.00      0.00
   0.00000000   0.00001510   0.00000000          0.00      2.22      0.00
   0.00000000   0.00000000   0.00000510          0.00      0.00      0.75


     Writing output data file template.save

     init_run     :      6.70s CPU      7.09s WALL (       1 calls)
     electrons    :     18.53s CPU     19.51s WALL (       1 calls)
     forces       :      2.18s CPU      2.26s WALL (       1 calls)
     stress       :      4.72s CPU      4.89s WALL (       1 calls)

     Called by init_run:
     wfcinit      :      2.92s CPU      3.04s WALL (       1 calls)
     potinit      :      1.04s CPU      1.11s WALL (       1 calls)

     Called by electrons:
     c_bands      :     14.04s CPU     14.81s WALL (       7 calls)
     sum_band     :      3.38s CPU      3.54s WALL (       7 calls)
     v_of_rho     :      0.18s CPU      0.19s WALL (       7 calls)
     newd         :      0.27s CPU      0.29s WALL (       7 calls)
     PAW_pot      :      0.94s CPU      0.99s WALL (       7 calls)
     mix_rho      :      0.02s CPU      0.02s WALL (       7 calls)

     Called by c_bands:
     init_us_2    :      0.39s CPU      0.40s WALL (    1088 calls)
     cegterg      :     13.66s CPU     14.40s WALL (     448 calls)

     Called by sum_band:
     sum_band:bec :      0.00s CPU      0.01s WALL (     448 calls)
     addusdens    :      0.28s CPU      0.27s WALL (       7 calls)

     Called by *egterg:
     h_psi        :     14.52s CPU     15.31s WALL (    1526 calls)
     s_psi        :      0.20s CPU      0.26s WALL (    1526 calls)
     g_psi        :      0.03s CPU      0.03s WALL (    1014 calls)
     cdiaghg      :      0.57s CPU      0.54s WALL (    1398 calls)

     Called by h_psi:
     h_psi:pot    :     14.48s CPU     15.27s WALL (    1526 calls)
     h_psi:calbec :      0.36s CPU      0.42s WALL (    1526 calls)
     vloc_psi     :     13.87s CPU     14.57s WALL (    1526 calls)
     add_vuspsi   :      0.24s CPU      0.27s WALL (    1526 calls)

     General routines
     calbec       :      0.69s CPU      0.77s WALL (    2294 calls)
     fft          :      0.44s CPU      0.44s WALL (     137 calls)
     ffts         :      0.02s CPU      0.01s WALL (      14 calls)
     fftw         :     15.90s CPU     16.71s WALL (   29196 calls)
     interpolate  :      0.02s CPU      0.03s WALL (      14 calls)
     davcio       :      0.00s CPU      0.00s WALL (      64 calls)

     Parallel routines
     fft_scatter  :      4.46s CPU      4.75s WALL (   29347 calls)

     PWSCF        :    35.38s CPU        37.55s WALL


   This run was terminated on:  13:43:46   9Jun2017            

=------------------------------------------------------------------------------=
   JOB DONE.
=------------------------------------------------------------------------------=
