
     Program PWSCF v.6.0 (svn rev. 13079) starts on  9Jun2017 at 13:46: 9 

     This program is part of the open-source Quantum ESPRESSO suite
     for quantum simulation of materials; please cite
         "P. Giannozzi et al., J. Phys.:Condens. Matter 21 395502 (2009);
          URL http://www.quantum-espresso.org", 
     in publications or presentations arising from this work. More details at
     http://www.quantum-espresso.org/quote

     Parallel version (MPI), running on     4 processors
     R & G space division:  proc/nbgrp/npool/nimage =       4
     Waiting for input...
     Reading input from standard input
Warning: card &IONS ignored
Warning: card ION_DYNAMICS='BFGS', ignored
Warning: card / ignored
Warning: card &CELL ignored
Warning: card CELL_DYNAMICS='BFGS', ignored
Warning: card PRESS = 0.0, ignored
Warning: card CELL_FACTOR = 2.0, ignored
Warning: card / ignored

     Current dimensions of program PWSCF are:
     Max number of different atomic species (ntypx) = 10
     Max number of k-points (npk) =  40000
     Max angular momentum in pseudopotentials (lmaxx) =  3
               file Al.pbe-nl-kjpaw_psl.1.0.0.UPF: wavefunction(s)  3S 3P renormalized
               file Al.pbe-nl-kjpaw_psl.1.0.0.UPF: wavefunction(s)  3S 3P renormalized
               file Al.pbe-nl-kjpaw_psl.1.0.0.UPF: wavefunction(s)  3S 3P renormalized
               file Al.pbe-nl-kjpaw_psl.1.0.0.UPF: wavefunction(s)  3S 3P renormalized

     Subspace diagonalization in iterative solution of the eigenvalue problem:
     a serial algorithm will be used


     Parallelization info
     --------------------
     sticks:   dense  smooth     PW     G-vecs:    dense   smooth      PW
     Min         230     162     50                 5287     3098     541
     Max         231     164     52                 5289     3099     542
     Sum         923     653    203                21153    12393    2167



     bravais-lattice index     =            0
     lattice parameter (alat)  =       7.6205  a.u.
     unit-cell volume          =     442.5300 (a.u.)^3
     number of atoms/cell      =            4
     number of atomic types    =            4
     number of electrons       =        12.00
     number of Kohn-Sham states=           10
     kinetic-energy cutoff     =      35.0000  Ry
     charge density cutoff     =     200.0000  Ry
     convergence threshold     =      1.0E-06
     mixing beta               =       0.3000
     number of iterations used =           10  TF        mixing
     Exchange-correlation      =  SLA  PW   PBX  PBC ( 1  4  3  4 0 0)

     celldm(1)=   7.620455  celldm(2)=   0.000000  celldm(3)=   0.000000
     celldm(4)=   0.000000  celldm(5)=   0.000000  celldm(6)=   0.000000

     crystal axes: (cart. coord. in units of alat)
               a(1) = (   1.018000   0.000000   0.000000 )  
               a(2) = (   0.000000   0.982000   0.000000 )  
               a(3) = (   0.000000   0.000000   1.000324 )  

     reciprocal axes: (cart. coord. in units 2 pi/alat)
               b(1) = (  0.982318  0.000000  0.000000 )  
               b(2) = (  0.000000  1.018330  0.000000 )  
               b(3) = (  0.000000  0.000000  0.999676 )  


     PseudoPot. # 1 for Al read from file:
     /home/ben/espresso/pp/Al.pbe-nl-kjpaw_psl.1.0.0.UPF
     MD5 check sum: 339dbea23cf3ab9a065ad45c0f9085d7
     Pseudo is Projector augmented-wave + core cor, Zval =  3.0
     Generated using "atomic" code by A. Dal Corso  v.5.1
     Shape of augmentation charge: PSQ
     Using radial grid of 1135 points,  4 beta functions with: 
                l(1) =   0
                l(2) =   0
                l(3) =   1
                l(4) =   1
     Q(r) pseudized with 0 coefficients 


     PseudoPot. # 2 for Al read from file:
     /home/ben/espresso/pp/Al.pbe-nl-kjpaw_psl.1.0.0.UPF
     MD5 check sum: 339dbea23cf3ab9a065ad45c0f9085d7
     Pseudo is Projector augmented-wave + core cor, Zval =  3.0
     Generated using "atomic" code by A. Dal Corso  v.5.1
     Shape of augmentation charge: PSQ
     Using radial grid of 1135 points,  4 beta functions with: 
                l(1) =   0
                l(2) =   0
                l(3) =   1
                l(4) =   1
     Q(r) pseudized with 0 coefficients 


     PseudoPot. # 3 for Al read from file:
     /home/ben/espresso/pp/Al.pbe-nl-kjpaw_psl.1.0.0.UPF
     MD5 check sum: 339dbea23cf3ab9a065ad45c0f9085d7
     Pseudo is Projector augmented-wave + core cor, Zval =  3.0
     Generated using "atomic" code by A. Dal Corso  v.5.1
     Shape of augmentation charge: PSQ
     Using radial grid of 1135 points,  4 beta functions with: 
                l(1) =   0
                l(2) =   0
                l(3) =   1
                l(4) =   1
     Q(r) pseudized with 0 coefficients 


     PseudoPot. # 4 for Al read from file:
     /home/ben/espresso/pp/Al.pbe-nl-kjpaw_psl.1.0.0.UPF
     MD5 check sum: 339dbea23cf3ab9a065ad45c0f9085d7
     Pseudo is Projector augmented-wave + core cor, Zval =  3.0
     Generated using "atomic" code by A. Dal Corso  v.5.1
     Shape of augmentation charge: PSQ
     Using radial grid of 1135 points,  4 beta functions with: 
                l(1) =   0
                l(2) =   0
                l(3) =   1
                l(4) =   1
     Q(r) pseudized with 0 coefficients 


     atomic species   valence    mass     pseudopotential
        Al1            3.00    26.98200     Al( 1.00)
        Al2            3.00    26.98200     Al( 1.00)
        Al3            3.00    26.98200     Al( 1.00)
        Al4            3.00    26.98200     Al( 1.00)

      8 Sym. Ops., with inversion, found



   Cartesian axes

     site n.     atom                  positions (alat units)
         1           Al1 tau(   1) = (   0.0000000   0.0000000   0.0000000  )
         2           Al2 tau(   2) = (   0.5090000   0.4910000   0.0000000  )
         3           Al3 tau(   3) = (   0.5090000   0.0000000   0.5001621  )
         4           Al4 tau(   4) = (   0.0000000   0.4910000   0.5001621  )

     number of k points=    64  Marzari-Vanderbilt smearing, width (Ry)=  0.0200
                       cart. coord. in units 2pi/alat
        k(    1) = (   0.0701656   0.0727379   0.0714054), wk =   0.0466472
        k(    2) = (   0.0701656   0.0727379   0.2142163), wk =   0.0466472
        k(    3) = (   0.0701656   0.0727379   0.3570271), wk =   0.0466472
        k(    4) = (   0.0701656   0.0727379  -0.4998380), wk =   0.0233236
        k(    5) = (   0.0701656   0.2182136   0.0714054), wk =   0.0466472
        k(    6) = (   0.0701656   0.2182136   0.2142163), wk =   0.0466472
        k(    7) = (   0.0701656   0.2182136   0.3570271), wk =   0.0466472
        k(    8) = (   0.0701656   0.2182136  -0.4998380), wk =   0.0233236
        k(    9) = (   0.0701656   0.3636893   0.0714054), wk =   0.0466472
        k(   10) = (   0.0701656   0.3636893   0.2142163), wk =   0.0466472
        k(   11) = (   0.0701656   0.3636893   0.3570271), wk =   0.0466472
        k(   12) = (   0.0701656   0.3636893  -0.4998380), wk =   0.0233236
        k(   13) = (   0.0701656  -0.5091650   0.0714054), wk =   0.0233236
        k(   14) = (   0.0701656  -0.5091650   0.2142163), wk =   0.0233236
        k(   15) = (   0.0701656  -0.5091650   0.3570271), wk =   0.0233236
        k(   16) = (   0.0701656  -0.5091650  -0.4998380), wk =   0.0116618
        k(   17) = (   0.2104968   0.0727379   0.0714054), wk =   0.0466472
        k(   18) = (   0.2104968   0.0727379   0.2142163), wk =   0.0466472
        k(   19) = (   0.2104968   0.0727379   0.3570271), wk =   0.0466472
        k(   20) = (   0.2104968   0.0727379  -0.4998380), wk =   0.0233236
        k(   21) = (   0.2104968   0.2182136   0.0714054), wk =   0.0466472
        k(   22) = (   0.2104968   0.2182136   0.2142163), wk =   0.0466472
        k(   23) = (   0.2104968   0.2182136   0.3570271), wk =   0.0466472
        k(   24) = (   0.2104968   0.2182136  -0.4998380), wk =   0.0233236
        k(   25) = (   0.2104968   0.3636893   0.0714054), wk =   0.0466472
        k(   26) = (   0.2104968   0.3636893   0.2142163), wk =   0.0466472
        k(   27) = (   0.2104968   0.3636893   0.3570271), wk =   0.0466472
        k(   28) = (   0.2104968   0.3636893  -0.4998380), wk =   0.0233236
        k(   29) = (   0.2104968  -0.5091650   0.0714054), wk =   0.0233236
        k(   30) = (   0.2104968  -0.5091650   0.2142163), wk =   0.0233236
        k(   31) = (   0.2104968  -0.5091650   0.3570271), wk =   0.0233236
        k(   32) = (   0.2104968  -0.5091650  -0.4998380), wk =   0.0116618
        k(   33) = (   0.3508280   0.0727379   0.0714054), wk =   0.0466472
        k(   34) = (   0.3508280   0.0727379   0.2142163), wk =   0.0466472
        k(   35) = (   0.3508280   0.0727379   0.3570271), wk =   0.0466472
        k(   36) = (   0.3508280   0.0727379  -0.4998380), wk =   0.0233236
        k(   37) = (   0.3508280   0.2182136   0.0714054), wk =   0.0466472
        k(   38) = (   0.3508280   0.2182136   0.2142163), wk =   0.0466472
        k(   39) = (   0.3508280   0.2182136   0.3570271), wk =   0.0466472
        k(   40) = (   0.3508280   0.2182136  -0.4998380), wk =   0.0233236
        k(   41) = (   0.3508280   0.3636893   0.0714054), wk =   0.0466472
        k(   42) = (   0.3508280   0.3636893   0.2142163), wk =   0.0466472
        k(   43) = (   0.3508280   0.3636893   0.3570271), wk =   0.0466472
        k(   44) = (   0.3508280   0.3636893  -0.4998380), wk =   0.0233236
        k(   45) = (   0.3508280  -0.5091650   0.0714054), wk =   0.0233236
        k(   46) = (   0.3508280  -0.5091650   0.2142163), wk =   0.0233236
        k(   47) = (   0.3508280  -0.5091650   0.3570271), wk =   0.0233236
        k(   48) = (   0.3508280  -0.5091650  -0.4998380), wk =   0.0116618
        k(   49) = (  -0.4911591   0.0727379   0.0714054), wk =   0.0233236
        k(   50) = (  -0.4911591   0.0727379   0.2142163), wk =   0.0233236
        k(   51) = (  -0.4911591   0.0727379   0.3570271), wk =   0.0233236
        k(   52) = (  -0.4911591   0.0727379  -0.4998380), wk =   0.0116618
        k(   53) = (  -0.4911591   0.2182136   0.0714054), wk =   0.0233236
        k(   54) = (  -0.4911591   0.2182136   0.2142163), wk =   0.0233236
        k(   55) = (  -0.4911591   0.2182136   0.3570271), wk =   0.0233236
        k(   56) = (  -0.4911591   0.2182136  -0.4998380), wk =   0.0116618
        k(   57) = (  -0.4911591   0.3636893   0.0714054), wk =   0.0233236
        k(   58) = (  -0.4911591   0.3636893   0.2142163), wk =   0.0233236
        k(   59) = (  -0.4911591   0.3636893   0.3570271), wk =   0.0233236
        k(   60) = (  -0.4911591   0.3636893  -0.4998380), wk =   0.0116618
        k(   61) = (  -0.4911591  -0.5091650   0.0714054), wk =   0.0116618
        k(   62) = (  -0.4911591  -0.5091650   0.2142163), wk =   0.0116618
        k(   63) = (  -0.4911591  -0.5091650   0.3570271), wk =   0.0116618
        k(   64) = (  -0.4911591  -0.5091650  -0.4998380), wk =   0.0058309

     Dense  grid:    21153 G-vectors     FFT dimensions: (  36,  36,  36)

     Smooth grid:    12393 G-vectors     FFT dimensions: (  30,  30,  30)

     Estimated max dynamical RAM per process >       8.01Mb

     Estimated total allocated dynamical RAM >      32.04Mb

     Initial potential from superposition of free atoms

     starting charge   11.99084, renormalised to   12.00000
     Starting wfc are   16 randomized atomic wfcs
     Checking if some PAW data can be deallocated... 

     total cpu time spent up to now is        7.7 secs

     per-process dynamical memory:    17.3 Mb

     Self-consistent Calculation

     iteration #  1     ecut=    35.00 Ry     beta=0.30
     Davidson diagonalization with overlap
     ethr =  1.00E-02,  avg # of iterations =  3.3

     Threshold (ethr) on eigenvalues was too large:
     Diagonalizing with lowered threshold

     Davidson diagonalization with overlap
     ethr =  1.98E-04,  avg # of iterations =  3.4

     total cpu time spent up to now is       17.7 secs

     total energy              =    -158.01001783 Ry
     Harris-Foulkes estimate   =    -158.01210130 Ry
     estimated scf accuracy    <       0.02294205 Ry

     iteration #  2     ecut=    35.00 Ry     beta=0.30
     Davidson diagonalization with overlap
     ethr =  1.91E-04,  avg # of iterations =  1.0

     total cpu time spent up to now is       19.4 secs

     total energy              =    -158.00572283 Ry
     Harris-Foulkes estimate   =    -158.01014377 Ry
     estimated scf accuracy    <       0.01427610 Ry

     iteration #  3     ecut=    35.00 Ry     beta=0.30
     Davidson diagonalization with overlap
     ethr =  1.19E-04,  avg # of iterations =  1.0

     total cpu time spent up to now is       20.9 secs

     total energy              =    -158.00599669 Ry
     Harris-Foulkes estimate   =    -158.00598674 Ry
     estimated scf accuracy    <       0.00003606 Ry

     iteration #  4     ecut=    35.00 Ry     beta=0.30
     Davidson diagonalization with overlap
     ethr =  3.00E-07,  avg # of iterations =  4.0

     total cpu time spent up to now is       23.3 secs

     total energy              =    -158.00607279 Ry
     Harris-Foulkes estimate   =    -158.00605541 Ry
     estimated scf accuracy    <       0.00001826 Ry

     iteration #  5     ecut=    35.00 Ry     beta=0.30
     Davidson diagonalization with overlap
     ethr =  1.52E-07,  avg # of iterations =  1.0

     total cpu time spent up to now is       24.7 secs

     total energy              =    -158.00607076 Ry
     Harris-Foulkes estimate   =    -158.00607376 Ry
     estimated scf accuracy    <       0.00000684 Ry

     iteration #  6     ecut=    35.00 Ry     beta=0.30
     Davidson diagonalization with overlap
     ethr =  5.70E-08,  avg # of iterations =  2.0

     total cpu time spent up to now is       26.4 secs

     End of self-consistent calculation

          k = 0.0702 0.0727 0.0714 (  1543 PWs)   bands (ev):

    -3.0735   4.1734   4.4128   4.6773   6.8653   7.2299   7.6236  11.3472
    11.5996  11.8267

          k = 0.0702 0.0727 0.2142 (  1542 PWs)   bands (ev):

    -2.7030   2.3747   4.5220   5.0237   7.2117   7.9553   9.3983   9.8657
     9.9046  12.0413

          k = 0.0702 0.0727 0.3570 (  1541 PWs)   bands (ev):

    -1.9647   0.5878   5.2167   5.7126   7.6224   7.8092   8.2564   8.6880
    10.4725  11.2053

          k = 0.0702 0.0727-0.4998 (  1540 PWs)   bands (ev):

    -0.8648  -0.8644   6.2374   6.2378   6.7699   6.7704   8.8777   8.8780
     9.9487   9.9493

          k = 0.0702 0.2182 0.0714 (  1543 PWs)   bands (ev):

    -2.6891   2.5739   4.5350   4.7732   7.2243   7.5834   9.5809   9.8034
    10.3792  11.7103

          k = 0.0702 0.2182 0.2142 (  1548 PWs)   bands (ev):

    -2.3195   2.7441   2.9293   4.8820   7.4542   7.9906   9.6965   9.8326
    10.3329  10.7476

          k = 0.0702 0.2182 0.3570 (  1551 PWs)   bands (ev):

    -1.5832   0.9625   3.6373   5.5541   6.1158   8.0076   8.3328  10.5805
    10.6257  11.5956

          k = 0.0702 0.2182-0.4998 (  1558 PWs)   bands (ev):

    -0.4863  -0.4858   4.6890   4.6894   6.6332   6.6337   9.3524   9.3528
    11.6108  11.6113

          k = 0.0702 0.3637 0.0714 (  1555 PWs)   bands (ev):

    -1.9232   0.7232   5.2553   5.4906   7.7222   7.7910   8.1838   8.3760
    10.5886  10.9430

          k = 0.0702 0.3637 0.2142 (  1551 PWs)   bands (ev):

    -1.5557   1.0839   3.4798   5.5744   6.0585   8.1214   8.3579  10.4304
    10.6174  11.2828

          k = 0.0702 0.3637 0.3570 (  1555 PWs)   bands (ev):

    -0.8233   1.7088   1.8027   4.2836   6.3139   8.7266   8.8158   9.0505
    11.2181  11.4248

          k = 0.0702 0.3637-0.4998 (  1558 PWs)   bands (ev):

     0.2679   0.2683   2.8733   2.8738   7.3490   7.3495   9.8489   9.8494
    10.0826  10.0830

          k = 0.0702-0.5092 0.0714 (  1554 PWs)   bands (ev):

    -0.7825  -0.7823   6.2945   6.2947   6.6090   6.6092   8.8787   8.8787
     9.7104   9.7107

          k = 0.0702-0.5092 0.2142 (  1550 PWs)   bands (ev):

    -0.4178  -0.4176   4.5731   4.5732   6.6970   6.6972   9.4136   9.4138
    11.4981  11.4982

          k = 0.0702-0.5092 0.3570 (  1564 PWs)   bands (ev):

     0.3088   0.3089   2.8204   2.8205   7.3876   7.3878   9.7981   9.7982
    10.1214  10.1216

          k = 0.0702-0.5092-0.4998 (  1548 PWs)   bands (ev):

     1.3913   1.3915   1.3918   1.3919   8.4233   8.4236   8.4239   8.4239
    11.1498  11.1499

          k = 0.2105 0.0727 0.0714 (  1536 PWs)   bands (ev):

    -2.7156   2.1932   4.7485   5.0120   7.5604   7.9454   9.4514   9.4653
     9.6967  12.1589

          k = 0.2105 0.0727 0.2142 (  1543 PWs)   bands (ev):

    -2.3460   2.5499   2.7187   5.3556   7.4118   8.4034   9.7467   9.9277
    10.2491  10.3332

          k = 0.2105 0.0727 0.3570 (  1544 PWs)   bands (ev):

    -1.6096   0.9366   3.2606   5.6799   6.0981   8.4632   9.0583  10.4489
    10.6954  11.5934

          k = 0.2105 0.0727-0.4998 (  1546 PWs)   bands (ev):

    -0.5124  -0.5119   4.3182   4.3187   7.0969   7.0974  10.0556  10.0560
    11.6366  11.6371

          k = 0.2105 0.2182 0.0714 (  1546 PWs)   bands (ev):

    -2.3322   2.5633   2.9172   5.1069   7.5299   8.0947   9.7460   9.7499
    10.1994  10.7407

          k = 0.2105 0.2182 0.2142 (  1549 PWs)   bands (ev):

    -1.9635   2.9189   3.0870   3.2716   7.8185   7.9943   8.1516  10.2094
    10.6340  11.0975

          k = 0.2105 0.2182 0.3570 (  1551 PWs)   bands (ev):

    -1.2290   1.3104   3.6265   3.9754   6.1039   6.4450   8.6941  10.8796
    11.0980  11.7546

          k = 0.2105 0.2182-0.4998 (  1546 PWs)   bands (ev):

    -0.1347  -0.1343   4.6427   4.6431   5.0928   5.0933   9.7297   9.7301
    11.8386  11.8389

          k = 0.2105 0.3637 0.0714 (  1552 PWs)   bands (ev):

    -1.5682   1.0716   3.3003   5.7159   5.9681   8.3367   8.7063  10.4541
    10.4839  11.3618

          k = 0.2105 0.3637 0.2142 (  1546 PWs)   bands (ev):

    -1.2015   1.4316   3.6528   3.8191   6.2195   6.3818   8.5422  10.9039
    11.0364  11.3247

          k = 0.2105 0.3637 0.3570 (  1552 PWs)   bands (ev):

    -0.4709   2.0549   2.1485   4.3101   4.6958   6.8258   6.9163   9.3388
    11.5936  13.8617

          k = 0.2105 0.3637-0.4998 (  1552 PWs)   bands (ev):

     0.6176   0.6181   3.2146   3.2151   5.4335   5.4340   7.9590   7.9595
    12.5973  12.5977

          k = 0.2105-0.5092 0.0714 (  1556 PWs)   bands (ev):

    -0.4302  -0.4301   4.3966   4.3968   6.9166   6.9167   9.7527   9.7528
    11.5500  11.7034

          k = 0.2105-0.5092 0.2142 (  1548 PWs)   bands (ev):

    -0.0664  -0.0663   4.6777   4.6778   5.0071   5.0073   9.6167   9.6169
    11.8489  11.8490

          k = 0.2105-0.5092 0.3570 (  1556 PWs)   bands (ev):

     0.6584   0.6586   3.1620   3.1622   5.4726   5.4728   7.9077   7.9079
    12.6356  12.6357

          k = 0.2105-0.5092-0.4998 (  1560 PWs)   bands (ev):

     1.7383   1.7385   1.7388   1.7388   6.5191   6.5194   6.5197   6.5197
    13.6408  13.6413

          k = 0.3508 0.0727 0.0714 (  1530 PWs)   bands (ev):

    -2.0025   0.4643   5.4174   5.6780   7.7311   7.9152   8.3577   8.6653
    10.7103  11.0909

          k = 0.3508 0.0727 0.2142 (  1544 PWs)   bands (ev):

    -1.6347   0.8258   3.4041   5.7277   6.0843   8.3613   9.0358  10.7790
    10.8298  11.5579

          k = 0.3508 0.0727 0.3570 (  1553 PWs)   bands (ev):

    -0.9019   1.5461   1.6318   4.0344   6.7312   9.0539   9.1346   9.7356
    11.4482  12.0171

          k = 0.3508 0.0727-0.4998 (  1546 PWs)   bands (ev):

     0.1899   0.1904   2.6192   2.6197   7.7630   7.7635  10.0834  10.0839
    10.7663  10.7667

          k = 0.3508 0.2182 0.0714 (  1547 PWs)   bands (ev):

    -1.6210   0.8393   3.6013   5.7212   6.0339   8.1208   8.6584  10.7686
    10.8243  11.6075

          k = 0.3508 0.2182 0.2142 (  1547 PWs)   bands (ev):

    -1.2541   1.1999   3.7691   3.9517   6.1611   6.3400   8.8312  11.1536
    11.2815  11.7383

          k = 0.3508 0.2182 0.3570 (  1547 PWs)   bands (ev):

    -0.5232   1.9184   2.0037   4.3500   4.7289   7.0367   7.1187   9.4570
    12.4367  13.7780

          k = 0.3508 0.2182-0.4998 (  1550 PWs)   bands (ev):

     0.5658   0.5662   2.9875   2.9880   5.7285   5.7289   8.0784   8.0788
    13.4229  13.4233

          k = 0.3508 0.3637 0.0714 (  1551 PWs)   bands (ev):

    -0.8608   1.5865   1.7660   4.1651   6.5114   8.8386   9.0086   9.3799
    11.3261  11.6705

          k = 0.3508 0.3637 0.2142 (  1546 PWs)   bands (ev):

    -0.4959   1.9452   2.1241   4.3812   4.6595   6.8830   7.0555   9.3948
    11.9974  13.7795

          k = 0.3508 0.3637 0.3570 (  1548 PWs)   bands (ev):

     0.2313   2.6589   2.7434   2.8362   5.1516   5.2428   5.3257   7.6834
    14.4980  14.9891

          k = 0.3508 0.3637-0.4998 (  1552 PWs)   bands (ev):

     1.3146   1.3150   3.6674   3.6677   3.9756   3.9761   6.2922   6.2927
    15.4294  15.4298

          k = 0.3508-0.5092 0.0714 (  1552 PWs)   bands (ev):

     0.2716   0.2718   2.6993   2.6995   7.5835   7.5837   9.9083   9.9085
    10.4501  10.4502

          k = 0.3508-0.5092 0.2142 (  1540 PWs)   bands (ev):

     0.6337   0.6339   3.0539   3.0540   5.6129   5.6131   7.9644   7.9646
    13.0315  13.0316

          k = 0.3508-0.5092 0.3570 (  1544 PWs)   bands (ev):

     1.3551   1.3553   3.6822   3.6823   3.9481   3.9483   6.2405   6.2407
    15.4559  15.4561

          k = 0.3508-0.5092-0.4998 (  1552 PWs)   bands (ev):

     2.4286   2.4288   2.4291   2.4292   4.8404   4.8407   4.8410   4.8410
    16.4337  16.4338

          k =-0.4912 0.0727 0.0714 (  1544 PWs)   bands (ev):

    -0.9398  -0.9395   6.3852   6.3855   6.7167   6.7171   9.0953   9.0955
     9.9511   9.9516

          k =-0.4912 0.0727 0.2142 (  1546 PWs)   bands (ev):

    -0.5747  -0.5744   4.4242   4.4245   7.0391   7.0395  10.0097  10.0100
    11.8249  11.8253

          k =-0.4912 0.0727 0.3570 (  1546 PWs)   bands (ev):

     0.1528   0.1531   2.6677   2.6680   7.7282   7.7286  10.1295  10.1299
    10.7323  10.7326

          k =-0.4912 0.0727-0.4998 (  1564 PWs)   bands (ev):

     1.2366   1.2370   1.2371   1.2374   8.7597   8.7602   8.7603   8.7606
    11.7634  11.7636

          k =-0.4912 0.2182 0.0714 (  1540 PWs)   bands (ev):

    -0.5610  -0.5607   4.6185   4.6189   6.7950   6.7953   9.6423   9.6426
    11.7649  11.7653

          k =-0.4912 0.2182 0.2142 (  1542 PWs)   bands (ev):

    -0.1969  -0.1965   4.7216   4.7219   5.0605   5.0609   9.8318   9.8322
    12.1581  12.1582

          k =-0.4912 0.2182 0.3570 (  1544 PWs)   bands (ev):

     0.5288   0.5291   3.0357   3.0361   5.6931   5.6935   8.1250   8.1254
    13.3946  13.3949

          k =-0.4912 0.2182-0.4998 (  1552 PWs)   bands (ev):

     1.6098   1.6101   1.6102   1.6105   6.7386   6.7390   6.7391   6.7394
    14.4030  14.4035

          k =-0.4912 0.3637 0.0714 (  1552 PWs)   bands (ev):

     0.1935   0.1939   2.8007   2.8011   7.5100   7.5104  10.0052  10.0055
    10.3770  10.3773

          k =-0.4912 0.3637 0.2142 (  1544 PWs)   bands (ev):

     0.5559   0.5562   3.1546   3.1550   5.5384   5.5388   8.0623   8.0627
    12.9623  12.9626

          k =-0.4912 0.3637 0.3570 (  1536 PWs)   bands (ev):

     1.2778   1.2781   3.6929   3.6932   3.9621   3.9625   6.3395   6.3398
    15.8493  15.8496

          k =-0.4912 0.3637-0.4998 (  1548 PWs)   bands (ev):

     2.3522   2.3526   2.3527   2.3530   4.9401   4.9405   4.9406   4.9409
    17.3371  17.3372

          k =-0.4912-0.5092 0.0714 (  1560 PWs)   bands (ev):

     1.3177   1.3179   1.3181   1.3181   8.5822   8.5825   8.5827   8.5827
    11.4452  11.4453

          k =-0.4912-0.5092 0.2142 (  1548 PWs)   bands (ev):

     1.6771   1.6773   1.6775   1.6776   6.6235   6.6238   6.6240   6.6240
    14.0056  14.0058

          k =-0.4912-0.5092 0.3570 (  1544 PWs)   bands (ev):

     2.3923   2.3925   2.3927   2.3928   4.8879   4.8882   4.8884   4.8885
    16.8644  16.8647

          k =-0.4912-0.5092-0.4998 (  1544 PWs)   bands (ev):

     3.3509   3.3510   3.3511   3.3515   3.5855   3.5861   3.5862   3.5865
    19.0278  19.0281

     the Fermi energy is     7.9733 ev

!    total energy              =    -158.00607147 Ry
     Harris-Foulkes estimate   =    -158.00607166 Ry
     estimated scf accuracy    <       0.00000009 Ry

     total all-electron energy =     -1942.577199 Ry

     The total energy is the sum of the following terms:

     one-electron contribution =      12.71554827 Ry
     hartree contribution      =       0.02412727 Ry
     xc contribution           =     -10.37578954 Ry
     ewald contribution        =     -21.65914901 Ry
     one-center paw contrib.   =    -138.71018305 Ry
     smearing contrib. (-TS)   =      -0.00062541 Ry

     convergence has been achieved in   6 iterations

     Forces acting on atoms (Ry/au):

     atom    1 type  1   force =     0.00000000    0.00000000    0.00000000
     atom    2 type  2   force =     0.00000000    0.00000000    0.00000000
     atom    3 type  3   force =     0.00000000    0.00000000    0.00000000
     atom    4 type  4   force =     0.00000000    0.00000000    0.00000000

     Total force =     0.000000     Total SCF correction =     0.000000


     entering subroutine stress ...

          total   stress  (Ry/bohr**3)                   (kbar)     P=    1.24
   0.00000395   0.00000000   0.00000000          0.58      0.00      0.00
   0.00000000  -0.00002528   0.00000000          0.00     -3.72      0.00
   0.00000000   0.00000000   0.00004659          0.00      0.00      6.85


     Writing output data file template.save

     init_run     :      5.85s CPU      6.54s WALL (       1 calls)
     electrons    :     18.13s CPU     18.72s WALL (       1 calls)
     forces       :      0.77s CPU      0.80s WALL (       1 calls)
     stress       :      5.21s CPU      5.71s WALL (       1 calls)

     Called by init_run:
     wfcinit      :      2.76s CPU      2.92s WALL (       1 calls)
     potinit      :      0.99s CPU      1.21s WALL (       1 calls)

     Called by electrons:
     c_bands      :     14.62s CPU     15.07s WALL (       7 calls)
     sum_band     :      2.87s CPU      2.99s WALL (       7 calls)
     v_of_rho     :      0.12s CPU      0.12s WALL (       7 calls)
     newd         :      0.17s CPU      0.19s WALL (       7 calls)
     PAW_pot      :      0.62s CPU      0.64s WALL (       7 calls)
     mix_rho      :      0.00s CPU      0.01s WALL (       7 calls)

     Called by c_bands:
     init_us_2    :      0.36s CPU      0.39s WALL (    1088 calls)
     cegterg      :     14.25s CPU     14.65s WALL (     448 calls)

     Called by sum_band:
     sum_band:bec :      0.01s CPU      0.01s WALL (     448 calls)
     addusdens    :      0.22s CPU      0.22s WALL (       7 calls)

     Called by *egterg:
     h_psi        :     14.90s CPU     15.39s WALL (    1526 calls)
     s_psi        :      0.29s CPU      0.26s WALL (    1526 calls)
     g_psi        :      0.02s CPU      0.03s WALL (    1014 calls)
     cdiaghg      :      0.50s CPU      0.53s WALL (    1398 calls)

     Called by h_psi:
     h_psi:pot    :     14.85s CPU     15.35s WALL (    1526 calls)
     h_psi:calbec :      0.41s CPU      0.41s WALL (    1526 calls)
     vloc_psi     :     14.17s CPU     14.64s WALL (    1526 calls)
     add_vuspsi   :      0.27s CPU      0.29s WALL (    1526 calls)

     General routines
     calbec       :      0.73s CPU      0.79s WALL (    2294 calls)
     fft          :      0.16s CPU      0.17s WALL (     137 calls)
     ffts         :      0.00s CPU      0.01s WALL (      14 calls)
     fftw         :     15.76s CPU     16.33s WALL (   29252 calls)
     interpolate  :      0.02s CPU      0.03s WALL (      14 calls)
     davcio       :      0.00s CPU      0.01s WALL (      64 calls)

     Parallel routines
     fft_scatter  :      3.52s CPU      3.86s WALL (   29403 calls)

     PWSCF        :    31.51s CPU        33.50s WALL


   This run was terminated on:  13:46:43   9Jun2017            

=------------------------------------------------------------------------------=
   JOB DONE.
=------------------------------------------------------------------------------=
