
     Program PWSCF v.6.0 (svn rev. 13079) starts on  9Jun2017 at 13:46:43 

     This program is part of the open-source Quantum ESPRESSO suite
     for quantum simulation of materials; please cite
         "P. Giannozzi et al., J. Phys.:Condens. Matter 21 395502 (2009);
          URL http://www.quantum-espresso.org", 
     in publications or presentations arising from this work. More details at
     http://www.quantum-espresso.org/quote

     Parallel version (MPI), running on     4 processors
     R & G space division:  proc/nbgrp/npool/nimage =       4
     Waiting for input...
     Reading input from standard input
Warning: card &IONS ignored
Warning: card ION_DYNAMICS='BFGS', ignored
Warning: card / ignored
Warning: card &CELL ignored
Warning: card CELL_DYNAMICS='BFGS', ignored
Warning: card PRESS = 0.0, ignored
Warning: card CELL_FACTOR = 2.0, ignored
Warning: card / ignored

     Current dimensions of program PWSCF are:
     Max number of different atomic species (ntypx) = 10
     Max number of k-points (npk) =  40000
     Max angular momentum in pseudopotentials (lmaxx) =  3
               file Al.pbe-nl-kjpaw_psl.1.0.0.UPF: wavefunction(s)  3S 3P renormalized
               file Al.pbe-nl-kjpaw_psl.1.0.0.UPF: wavefunction(s)  3S 3P renormalized
               file Al.pbe-nl-kjpaw_psl.1.0.0.UPF: wavefunction(s)  3S 3P renormalized
               file Al.pbe-nl-kjpaw_psl.1.0.0.UPF: wavefunction(s)  3S 3P renormalized

     Subspace diagonalization in iterative solution of the eigenvalue problem:
     a serial algorithm will be used


     Parallelization info
     --------------------
     sticks:   dense  smooth     PW     G-vecs:    dense   smooth      PW
     Min         230     162     50                 5282     3094     541
     Max         231     164     52                 5285     3095     542
     Sum         923     653    203                21133    12377    2167



     bravais-lattice index     =            0
     lattice parameter (alat)  =       7.6205  a.u.
     unit-cell volume          =     442.5300 (a.u.)^3
     number of atoms/cell      =            4
     number of atomic types    =            4
     number of electrons       =        12.00
     number of Kohn-Sham states=           10
     kinetic-energy cutoff     =      35.0000  Ry
     charge density cutoff     =     200.0000  Ry
     convergence threshold     =      1.0E-06
     mixing beta               =       0.3000
     number of iterations used =           10  TF        mixing
     Exchange-correlation      =  SLA  PW   PBX  PBC ( 1  4  3  4 0 0)

     celldm(1)=   7.620455  celldm(2)=   0.000000  celldm(3)=   0.000000
     celldm(4)=   0.000000  celldm(5)=   0.000000  celldm(6)=   0.000000

     crystal axes: (cart. coord. in units of alat)
               a(1) = (   1.020000   0.000000   0.000000 )  
               a(2) = (   0.000000   0.980000   0.000000 )  
               a(3) = (   0.000000   0.000000   1.000400 )  

     reciprocal axes: (cart. coord. in units 2 pi/alat)
               b(1) = (  0.980392  0.000000  0.000000 )  
               b(2) = (  0.000000  1.020408  0.000000 )  
               b(3) = (  0.000000  0.000000  0.999600 )  


     PseudoPot. # 1 for Al read from file:
     /home/ben/espresso/pp/Al.pbe-nl-kjpaw_psl.1.0.0.UPF
     MD5 check sum: 339dbea23cf3ab9a065ad45c0f9085d7
     Pseudo is Projector augmented-wave + core cor, Zval =  3.0
     Generated using "atomic" code by A. Dal Corso  v.5.1
     Shape of augmentation charge: PSQ
     Using radial grid of 1135 points,  4 beta functions with: 
                l(1) =   0
                l(2) =   0
                l(3) =   1
                l(4) =   1
     Q(r) pseudized with 0 coefficients 


     PseudoPot. # 2 for Al read from file:
     /home/ben/espresso/pp/Al.pbe-nl-kjpaw_psl.1.0.0.UPF
     MD5 check sum: 339dbea23cf3ab9a065ad45c0f9085d7
     Pseudo is Projector augmented-wave + core cor, Zval =  3.0
     Generated using "atomic" code by A. Dal Corso  v.5.1
     Shape of augmentation charge: PSQ
     Using radial grid of 1135 points,  4 beta functions with: 
                l(1) =   0
                l(2) =   0
                l(3) =   1
                l(4) =   1
     Q(r) pseudized with 0 coefficients 


     PseudoPot. # 3 for Al read from file:
     /home/ben/espresso/pp/Al.pbe-nl-kjpaw_psl.1.0.0.UPF
     MD5 check sum: 339dbea23cf3ab9a065ad45c0f9085d7
     Pseudo is Projector augmented-wave + core cor, Zval =  3.0
     Generated using "atomic" code by A. Dal Corso  v.5.1
     Shape of augmentation charge: PSQ
     Using radial grid of 1135 points,  4 beta functions with: 
                l(1) =   0
                l(2) =   0
                l(3) =   1
                l(4) =   1
     Q(r) pseudized with 0 coefficients 


     PseudoPot. # 4 for Al read from file:
     /home/ben/espresso/pp/Al.pbe-nl-kjpaw_psl.1.0.0.UPF
     MD5 check sum: 339dbea23cf3ab9a065ad45c0f9085d7
     Pseudo is Projector augmented-wave + core cor, Zval =  3.0
     Generated using "atomic" code by A. Dal Corso  v.5.1
     Shape of augmentation charge: PSQ
     Using radial grid of 1135 points,  4 beta functions with: 
                l(1) =   0
                l(2) =   0
                l(3) =   1
                l(4) =   1
     Q(r) pseudized with 0 coefficients 


     atomic species   valence    mass     pseudopotential
        Al1            3.00    26.98200     Al( 1.00)
        Al2            3.00    26.98200     Al( 1.00)
        Al3            3.00    26.98200     Al( 1.00)
        Al4            3.00    26.98200     Al( 1.00)

      8 Sym. Ops., with inversion, found



   Cartesian axes

     site n.     atom                  positions (alat units)
         1           Al1 tau(   1) = (   0.0000000   0.0000000   0.0000000  )
         2           Al2 tau(   2) = (   0.5100000   0.4900000   0.0000000  )
         3           Al3 tau(   3) = (   0.5100000   0.0000000   0.5002001  )
         4           Al4 tau(   4) = (   0.0000000   0.4900000   0.5002001  )

     number of k points=    64  Marzari-Vanderbilt smearing, width (Ry)=  0.0200
                       cart. coord. in units 2pi/alat
        k(    1) = (   0.0700280   0.0728863   0.0714000), wk =   0.0466472
        k(    2) = (   0.0700280   0.0728863   0.2142000), wk =   0.0466472
        k(    3) = (   0.0700280   0.0728863   0.3570000), wk =   0.0466472
        k(    4) = (   0.0700280   0.0728863  -0.4998000), wk =   0.0233236
        k(    5) = (   0.0700280   0.2186589   0.0714000), wk =   0.0466472
        k(    6) = (   0.0700280   0.2186589   0.2142000), wk =   0.0466472
        k(    7) = (   0.0700280   0.2186589   0.3570000), wk =   0.0466472
        k(    8) = (   0.0700280   0.2186589  -0.4998000), wk =   0.0233236
        k(    9) = (   0.0700280   0.3644315   0.0714000), wk =   0.0466472
        k(   10) = (   0.0700280   0.3644315   0.2142000), wk =   0.0466472
        k(   11) = (   0.0700280   0.3644315   0.3570000), wk =   0.0466472
        k(   12) = (   0.0700280   0.3644315  -0.4998000), wk =   0.0233236
        k(   13) = (   0.0700280  -0.5102041   0.0714000), wk =   0.0233236
        k(   14) = (   0.0700280  -0.5102041   0.2142000), wk =   0.0233236
        k(   15) = (   0.0700280  -0.5102041   0.3570000), wk =   0.0233236
        k(   16) = (   0.0700280  -0.5102041  -0.4998000), wk =   0.0116618
        k(   17) = (   0.2100840   0.0728863   0.0714000), wk =   0.0466472
        k(   18) = (   0.2100840   0.0728863   0.2142000), wk =   0.0466472
        k(   19) = (   0.2100840   0.0728863   0.3570000), wk =   0.0466472
        k(   20) = (   0.2100840   0.0728863  -0.4998000), wk =   0.0233236
        k(   21) = (   0.2100840   0.2186589   0.0714000), wk =   0.0466472
        k(   22) = (   0.2100840   0.2186589   0.2142000), wk =   0.0466472
        k(   23) = (   0.2100840   0.2186589   0.3570000), wk =   0.0466472
        k(   24) = (   0.2100840   0.2186589  -0.4998000), wk =   0.0233236
        k(   25) = (   0.2100840   0.3644315   0.0714000), wk =   0.0466472
        k(   26) = (   0.2100840   0.3644315   0.2142000), wk =   0.0466472
        k(   27) = (   0.2100840   0.3644315   0.3570000), wk =   0.0466472
        k(   28) = (   0.2100840   0.3644315  -0.4998000), wk =   0.0233236
        k(   29) = (   0.2100840  -0.5102041   0.0714000), wk =   0.0233236
        k(   30) = (   0.2100840  -0.5102041   0.2142000), wk =   0.0233236
        k(   31) = (   0.2100840  -0.5102041   0.3570000), wk =   0.0233236
        k(   32) = (   0.2100840  -0.5102041  -0.4998000), wk =   0.0116618
        k(   33) = (   0.3501401   0.0728863   0.0714000), wk =   0.0466472
        k(   34) = (   0.3501401   0.0728863   0.2142000), wk =   0.0466472
        k(   35) = (   0.3501401   0.0728863   0.3570000), wk =   0.0466472
        k(   36) = (   0.3501401   0.0728863  -0.4998000), wk =   0.0233236
        k(   37) = (   0.3501401   0.2186589   0.0714000), wk =   0.0466472
        k(   38) = (   0.3501401   0.2186589   0.2142000), wk =   0.0466472
        k(   39) = (   0.3501401   0.2186589   0.3570000), wk =   0.0466472
        k(   40) = (   0.3501401   0.2186589  -0.4998000), wk =   0.0233236
        k(   41) = (   0.3501401   0.3644315   0.0714000), wk =   0.0466472
        k(   42) = (   0.3501401   0.3644315   0.2142000), wk =   0.0466472
        k(   43) = (   0.3501401   0.3644315   0.3570000), wk =   0.0466472
        k(   44) = (   0.3501401   0.3644315  -0.4998000), wk =   0.0233236
        k(   45) = (   0.3501401  -0.5102041   0.0714000), wk =   0.0233236
        k(   46) = (   0.3501401  -0.5102041   0.2142000), wk =   0.0233236
        k(   47) = (   0.3501401  -0.5102041   0.3570000), wk =   0.0233236
        k(   48) = (   0.3501401  -0.5102041  -0.4998000), wk =   0.0116618
        k(   49) = (  -0.4901961   0.0728863   0.0714000), wk =   0.0233236
        k(   50) = (  -0.4901961   0.0728863   0.2142000), wk =   0.0233236
        k(   51) = (  -0.4901961   0.0728863   0.3570000), wk =   0.0233236
        k(   52) = (  -0.4901961   0.0728863  -0.4998000), wk =   0.0116618
        k(   53) = (  -0.4901961   0.2186589   0.0714000), wk =   0.0233236
        k(   54) = (  -0.4901961   0.2186589   0.2142000), wk =   0.0233236
        k(   55) = (  -0.4901961   0.2186589   0.3570000), wk =   0.0233236
        k(   56) = (  -0.4901961   0.2186589  -0.4998000), wk =   0.0116618
        k(   57) = (  -0.4901961   0.3644315   0.0714000), wk =   0.0233236
        k(   58) = (  -0.4901961   0.3644315   0.2142000), wk =   0.0233236
        k(   59) = (  -0.4901961   0.3644315   0.3570000), wk =   0.0233236
        k(   60) = (  -0.4901961   0.3644315  -0.4998000), wk =   0.0116618
        k(   61) = (  -0.4901961  -0.5102041   0.0714000), wk =   0.0116618
        k(   62) = (  -0.4901961  -0.5102041   0.2142000), wk =   0.0116618
        k(   63) = (  -0.4901961  -0.5102041   0.3570000), wk =   0.0116618
        k(   64) = (  -0.4901961  -0.5102041  -0.4998000), wk =   0.0058309

     Dense  grid:    21133 G-vectors     FFT dimensions: (  36,  36,  36)

     Smooth grid:    12377 G-vectors     FFT dimensions: (  30,  30,  30)

     Estimated max dynamical RAM per process >       8.01Mb

     Estimated total allocated dynamical RAM >      32.03Mb

     Initial potential from superposition of free atoms

     starting charge   11.99084, renormalised to   12.00000
     Starting wfc are   16 randomized atomic wfcs
     Checking if some PAW data can be deallocated... 

     total cpu time spent up to now is        9.0 secs

     per-process dynamical memory:    17.3 Mb

     Self-consistent Calculation

     iteration #  1     ecut=    35.00 Ry     beta=0.30
     Davidson diagonalization with overlap
     ethr =  1.00E-02,  avg # of iterations =  3.4

     Threshold (ethr) on eigenvalues was too large:
     Diagonalizing with lowered threshold

     Davidson diagonalization with overlap
     ethr =  1.98E-04,  avg # of iterations =  3.3

     total cpu time spent up to now is       13.3 secs

     total energy              =    -158.01004533 Ry
     Harris-Foulkes estimate   =    -158.01212350 Ry
     estimated scf accuracy    <       0.02290935 Ry

     iteration #  2     ecut=    35.00 Ry     beta=0.30
     Davidson diagonalization with overlap
     ethr =  1.91E-04,  avg # of iterations =  1.0

     total cpu time spent up to now is       14.9 secs

     total energy              =    -158.00576017 Ry
     Harris-Foulkes estimate   =    -158.01017051 Ry
     estimated scf accuracy    <       0.01425491 Ry

     iteration #  3     ecut=    35.00 Ry     beta=0.30
     Davidson diagonalization with overlap
     ethr =  1.19E-04,  avg # of iterations =  1.0

     total cpu time spent up to now is       16.6 secs

     total energy              =    -158.00603361 Ry
     Harris-Foulkes estimate   =    -158.00602385 Ry
     estimated scf accuracy    <       0.00003609 Ry

     iteration #  4     ecut=    35.00 Ry     beta=0.30
     Davidson diagonalization with overlap
     ethr =  3.01E-07,  avg # of iterations =  3.8

     total cpu time spent up to now is       19.6 secs

     total energy              =    -158.00610935 Ry
     Harris-Foulkes estimate   =    -158.00609198 Ry
     estimated scf accuracy    <       0.00001832 Ry

     iteration #  5     ecut=    35.00 Ry     beta=0.30
     Davidson diagonalization with overlap
     ethr =  1.53E-07,  avg # of iterations =  1.0

     total cpu time spent up to now is       25.6 secs

     total energy              =    -158.00610736 Ry
     Harris-Foulkes estimate   =    -158.00611033 Ry
     estimated scf accuracy    <       0.00000680 Ry

     iteration #  6     ecut=    35.00 Ry     beta=0.30
     Davidson diagonalization with overlap
     ethr =  5.67E-08,  avg # of iterations =  2.0

     total cpu time spent up to now is       31.7 secs

     End of self-consistent calculation

          k = 0.0700 0.0729 0.0714 (  1544 PWs)   bands (ev):

    -3.0735   4.1472   4.4117   4.7073   6.8251   7.2283   7.6676  11.3210
    11.6031  11.8539

          k = 0.0700 0.0729 0.2142 (  1541 PWs)   bands (ev):

    -2.7029   2.3739   4.4959   5.0534   7.1718   7.9975   9.3741   9.8932
     9.9027  12.0003

          k = 0.0700 0.0729 0.3570 (  1540 PWs)   bands (ev):

    -1.9648   0.5873   5.1908   5.7418   7.5988   7.7846   8.2698   8.7265
    10.4353  11.2486

          k = 0.0700 0.0729-0.4998 (  1540 PWs)   bands (ev):

    -0.8651  -0.8646   6.2135   6.2140   6.7965   6.7970   8.8485   8.8488
     9.9818   9.9823

          k = 0.0700 0.2187 0.0714 (  1543 PWs)   bands (ev):

    -2.6874   2.5964   4.5104   4.7736   7.1859   7.5832   9.5777   9.8234
    10.4320  11.6863

          k = 0.0700 0.2187 0.2142 (  1548 PWs)   bands (ev):

    -2.3179   2.7448   2.9517   4.8574   7.4305   7.9962   9.6741   9.8292
    10.3322  10.7971

          k = 0.0700 0.2187 0.3570 (  1552 PWs)   bands (ev):

    -1.5818   0.9635   3.6594   5.5317   6.1344   7.9835   8.2946  10.5770
    10.5969  11.6388

          k = 0.0700 0.2187-0.4998 (  1556 PWs)   bands (ev):

    -0.4850  -0.4846   4.7105   4.7109   6.6091   6.6096   9.3140   9.3144
    11.6072  11.6077

          k = 0.0700 0.3644 0.0714 (  1556 PWs)   bands (ev):

    -1.9185   0.7385   5.2338   5.4938   7.7125   7.7748   8.1782   8.3774
    10.5638  10.9559

          k = 0.0700 0.3644 0.2142 (  1553 PWs)   bands (ev):

    -1.5510   1.0992   3.4835   5.5552   6.0697   8.1107   8.3226  10.4093
    10.6020  11.2751

          k = 0.0700 0.3644 0.3570 (  1554 PWs)   bands (ev):

    -0.8188   1.7129   1.8177   4.2977   6.2927   8.7054   8.8051   9.0145
    11.3885  11.4855

          k = 0.0700 0.3644-0.4998 (  1558 PWs)   bands (ev):

     0.2722   0.2726   2.8880   2.8885   7.3277   7.3282   9.8382   9.8387
    10.0465  10.0469

          k = 0.0700-0.5102 0.0714 (  1554 PWs)   bands (ev):

    -0.7731  -0.7730   6.2805   6.2807   6.6136   6.6138   8.8579   8.8580
     9.7076   9.7078

          k = 0.0700-0.5102 0.2142 (  1552 PWs)   bands (ev):

    -0.4085  -0.4084   4.5811   4.5812   6.6803   6.6805   9.3827   9.3828
    11.4813  11.4814

          k = 0.0700-0.5102 0.3570 (  1562 PWs)   bands (ev):

     0.3179   0.3180   2.8289   2.8290   7.3709   7.3711   9.7814   9.7816
    10.0899  10.0900

          k = 0.0700-0.5102-0.4998 (  1552 PWs)   bands (ev):

     1.4001   1.4003   1.4006   1.4007   8.4066   8.4069   8.4072   8.4072
    11.1179  11.1182

          k = 0.2101 0.0729 0.0714 (  1537 PWs)   bands (ev):

    -2.7170   2.1733   4.7461   5.0405   7.5577   7.9869   9.4168   9.4325
     9.7064  12.2062

          k = 0.2101 0.0729 0.2142 (  1544 PWs)   bands (ev):

    -2.3474   2.5301   2.7166   5.3838   7.3956   8.4427   9.7072   9.9343
    10.2668  10.3332

          k = 0.2101 0.0729 0.3570 (  1544 PWs)   bands (ev):

    -1.6110   0.9348   3.2408   5.6644   6.1219   8.4898   9.1005  10.4077
    10.7048  11.6290

          k = 0.2101 0.0729-0.4998 (  1548 PWs)   bands (ev):

    -0.5140  -0.5136   4.2985   4.2989   7.1244   7.1249  10.0941  10.0944
    11.5921  11.5926

          k = 0.2101 0.2187 0.0714 (  1545 PWs)   bands (ev):

    -2.3319   2.5450   2.9383   5.1060   7.5312   8.0946   9.7094   9.7332
    10.2083  10.7897

          k = 0.2101 0.2187 0.2142 (  1548 PWs)   bands (ev):

    -1.9633   2.9006   3.0864   3.2926   7.8004   7.9968   8.1704  10.1630
    10.6322  11.1496

          k = 0.2101 0.2187 0.3570 (  1550 PWs)   bands (ev):

    -1.2290   1.3101   3.6083   3.9959   6.0858   6.4649   8.6965  10.8329
    11.1000  11.8041

          k = 0.2101 0.2187-0.4998 (  1546 PWs)   bands (ev):

    -0.1348  -0.1344   4.6283   4.6287   5.1093   5.1098   9.7319   9.7324
    11.7977  11.7980

          k = 0.2101 0.3644 0.0714 (  1552 PWs)   bands (ev):

    -1.5649   1.0856   3.2851   5.7145   5.9668   8.3484   8.7079  10.4179
    10.4683  11.3662

          k = 0.2101 0.3644 0.2142 (  1545 PWs)   bands (ev):

    -1.1983   1.4454   3.6377   3.8214   6.2149   6.3942   8.5268  10.8601
    11.0311  11.3253

          k = 0.2101 0.3644 0.3570 (  1552 PWs)   bands (ev):

    -0.4678   2.0576   2.1621   4.2988   4.7049   6.8105   6.9116   9.3338
    11.5494  13.8210

          k = 0.2101 0.3644-0.4998 (  1548 PWs)   bands (ev):

     0.6206   0.6210   3.2279   3.2283   5.4184   5.4188   7.9542   7.9546
    12.5533  12.5537

          k = 0.2101-0.5102 0.0714 (  1556 PWs)   bands (ev):

    -0.4223  -0.4222   4.3860   4.3862   6.9228   6.9230   9.7575   9.7577
    11.6641  11.6656

          k = 0.2101-0.5102 0.2142 (  1550 PWs)   bands (ev):

    -0.0586  -0.0584   4.6711   4.6712   5.0099   5.0101   9.6057   9.6059
    11.8174  11.8174

          k = 0.2101-0.5102 0.3570 (  1554 PWs)   bands (ev):

     0.6661   0.6663   3.1691   3.1693   5.4620   5.4622   7.8968   7.8970
    12.5962  12.5963

          k = 0.2101-0.5102-0.4998 (  1552 PWs)   bands (ev):

     1.7457   1.7459   1.7462   1.7463   6.5084   6.5087   6.5090   6.5090
    13.6012  13.6016

          k = 0.3501 0.0729 0.0714 (  1530 PWs)   bands (ev):

    -2.0066   0.4508   5.4125   5.7036   7.7195   7.9256   8.3585   8.7016
    10.6976  11.1219

          k = 0.3501 0.0729 0.2142 (  1545 PWs)   bands (ev):

    -1.6389   0.8123   3.3994   5.7191   6.1049   8.3773   9.0757  10.7808
    10.8531  11.5815

          k = 0.3501 0.0729 0.3570 (  1553 PWs)   bands (ev):

    -0.9061   1.5326   1.6273   4.0208   6.7565   9.0698   9.1589   9.7758
    11.4631  12.0477

          k = 0.3501 0.0729-0.4998 (  1546 PWs)   bands (ev):

     0.1856   0.1860   2.6056   2.6061   7.7879   7.7884  10.0988  10.0993
    10.8061  10.8065

          k = 0.3501 0.2187 0.0714 (  1547 PWs)   bands (ev):

    -1.6235   0.8274   3.6196   5.7200   6.0404   8.1085   8.6546  10.7845
    10.8238  11.6447

          k = 0.3501 0.2187 0.2142 (  1546 PWs)   bands (ev):

    -1.2567   1.1880   3.7659   3.9698   6.1490   6.3488   8.8480  11.1614
    11.2773  11.7870

          k = 0.3501 0.2187 0.3570 (  1546 PWs)   bands (ev):

    -0.5259   1.9064   2.0007   4.3422   4.7426   7.0454   7.1360   9.4651
    12.4862  13.7245

          k = 0.3501 0.2187-0.4998 (  1552 PWs)   bands (ev):

     0.5630   0.5634   2.9755   2.9759   5.7462   5.7466   8.0868   8.0873
    13.4695  13.4699

          k = 0.3501 0.3644 0.0714 (  1552 PWs)   bands (ev):

    -0.8602   1.5776   1.7772   4.1668   6.5108   8.8291   9.0180   9.3790
    11.3265  11.6608

          k = 0.3501 0.3644 0.2142 (  1548 PWs)   bands (ev):

    -0.4953   1.9363   2.1352   4.3816   4.6605   6.8737   7.0654   9.3957
    11.9959  13.7309

          k = 0.3501 0.3644 0.3570 (  1541 PWs)   bands (ev):

     0.2317   2.6500   2.7434   2.8470   5.1426   5.2444   5.3360   7.6846
    14.4439  14.9867

          k = 0.3501 0.3644-0.4998 (  1552 PWs)   bands (ev):

     1.3148   1.3152   3.6621   3.6625   3.9825   3.9830   6.2937   6.2941
    15.3776  15.3780

          k = 0.3501-0.5102 0.0714 (  1550 PWs)   bands (ev):

     0.2768   0.2769   2.6951   2.6952   7.5872   7.5874   9.9031   9.9033
    10.4533  10.4535

          k = 0.3501-0.5102 0.2142 (  1540 PWs)   bands (ev):

     0.6388   0.6390   3.0496   3.0497   5.6171   5.6173   7.9595   7.9597
    13.0337  13.0338

          k = 0.3501-0.5102 0.3570 (  1546 PWs)   bands (ev):

     1.3601   1.3602   3.6805   3.6806   3.9498   3.9500   6.2358   6.2360
    15.4112  15.4113

          k = 0.3501-0.5102-0.4998 (  1552 PWs)   bands (ev):

     2.4334   2.4336   2.4338   2.4339   4.8360   4.8363   4.8366   4.8366
    16.3856  16.3861

          k =-0.4902 0.0729 0.0714 (  1544 PWs)   bands (ev):

    -0.9480  -0.9477   6.3796   6.3799   6.7351   6.7355   9.0972   9.0974
     9.9763   9.9768

          k =-0.4902 0.0729 0.2142 (  1544 PWs)   bands (ev):

    -0.5829  -0.5826   4.4156   4.4159   7.0606   7.0610  10.0448  10.0451
    11.8446  11.8450

          k =-0.4902 0.0729 0.3570 (  1550 PWs)   bands (ev):

     0.1445   0.1448   2.6592   2.6595   7.7494   7.7498  10.1497  10.1501
    10.7685  10.7688

          k =-0.4902 0.0729-0.4998 (  1560 PWs)   bands (ev):

     1.2283   1.2287   1.2288   1.2291   8.7805   8.7810   8.7811   8.7814
    11.7995  11.7999

          k =-0.4902 0.2187 0.0714 (  1540 PWs)   bands (ev):

    -0.5677  -0.5673   4.6327   4.6330   6.7877   6.7881   9.6350   9.6353
    11.7773  11.7777

          k =-0.4902 0.2187 0.2142 (  1540 PWs)   bands (ev):

    -0.2035  -0.2032   4.7189   4.7192   5.0701   5.0706   9.8447   9.8451
    12.1584  12.1585

          k =-0.4902 0.2187 0.3570 (  1548 PWs)   bands (ev):

     0.5220   0.5224   3.0288   3.0291   5.7071   5.7074   8.1383   8.1387
    13.4394  13.4397

          k =-0.4902 0.2187-0.4998 (  1552 PWs)   bands (ev):

     1.6029   1.6033   1.6034   1.6037   6.7523   6.7527   6.7528   6.7531
    14.4482  14.4485

          k =-0.4902 0.3644 0.0714 (  1556 PWs)   bands (ev):

     0.1900   0.1904   2.8078   2.8081   7.5056   7.5060  10.0107  10.0111
    10.3721  10.3724

          k =-0.4902 0.3644 0.2142 (  1546 PWs)   bands (ev):

     0.5523   0.5527   3.1616   3.1619   5.5343   5.5347   8.0683   8.0686
    12.9569  12.9572

          k =-0.4902 0.3644 0.3570 (  1538 PWs)   bands (ev):

     1.2741   1.2745   3.6922   3.6924   3.9657   3.9661   6.3458   6.3462
    15.8445  15.8447

          k =-0.4902 0.3644-0.4998 (  1548 PWs)   bands (ev):

     2.3484   2.3488   2.3489   2.3492   4.9467   4.9472   4.9473   4.9475
    17.3888  17.3890

          k =-0.4902-0.5102 0.0714 (  1564 PWs)   bands (ev):

     1.3187   1.3190   1.3191   1.3192   8.5820   8.5824   8.5826   8.5826
    11.4444  11.4448

          k =-0.4902-0.5102 0.2142 (  1548 PWs)   bands (ev):

     1.6781   1.6783   1.6785   1.6786   6.6238   6.6241   6.6243   6.6243
    14.0045  14.0046

          k =-0.4902-0.5102 0.3570 (  1544 PWs)   bands (ev):

     2.3932   2.3934   2.3936   2.3937   4.8885   4.8888   4.8890   4.8890
    16.8616  16.8618

          k =-0.4902-0.5102-0.4998 (  1536 PWs)   bands (ev):

     3.3514   3.3515   3.3516   3.3520   3.5865   3.5872   3.5873   3.5875
    18.9801  18.9804

     the Fermi energy is     7.9762 ev

!    total energy              =    -158.00610808 Ry
     Harris-Foulkes estimate   =    -158.00610828 Ry
     estimated scf accuracy    <       0.00000009 Ry

     total all-electron energy =     -1942.577236 Ry

     The total energy is the sum of the following terms:

     one-electron contribution =      12.71572916 Ry
     hartree contribution      =       0.02413270 Ry
     xc contribution           =     -10.37589071 Ry
     ewald contribution        =     -21.65907310 Ry
     one-center paw contrib.   =    -138.71036440 Ry
     smearing contrib. (-TS)   =      -0.00064174 Ry

     convergence has been achieved in   6 iterations

     Forces acting on atoms (Ry/au):

     atom    1 type  1   force =     0.00000000    0.00000000    0.00000000
     atom    2 type  2   force =     0.00000000    0.00000000    0.00000000
     atom    3 type  3   force =     0.00000000    0.00000000    0.00000000
     atom    4 type  4   force =     0.00000000    0.00000000    0.00000000

     Total force =     0.000000     Total SCF correction =     0.000000


     entering subroutine stress ...

          total   stress  (Ry/bohr**3)                   (kbar)     P=    1.53
   0.00001196   0.00000000   0.00000000          1.76      0.00      0.00
   0.00000000  -0.00003597   0.00000000          0.00     -5.29      0.00
   0.00000000   0.00000000   0.00005524          0.00      0.00      8.13


     Writing output data file template.save

     init_run     :      5.10s CPU      5.49s WALL (       1 calls)
     electrons    :     20.92s CPU     22.69s WALL (       1 calls)
     forces       :      2.15s CPU      2.31s WALL (       1 calls)
     stress       :      1.81s CPU      1.85s WALL (       1 calls)

     Called by init_run:
     wfcinit      :      1.16s CPU      1.27s WALL (       1 calls)
     potinit      :      1.13s CPU      1.23s WALL (       1 calls)

     Called by electrons:
     c_bands      :     16.02s CPU     17.37s WALL (       7 calls)
     sum_band     :      3.62s CPU      3.86s WALL (       7 calls)
     v_of_rho     :      0.21s CPU      0.26s WALL (       7 calls)
     newd         :      0.29s CPU      0.35s WALL (       7 calls)
     PAW_pot      :      1.03s CPU      1.17s WALL (       7 calls)
     mix_rho      :      0.02s CPU      0.02s WALL (       7 calls)

     Called by c_bands:
     init_us_2    :      0.46s CPU      0.46s WALL (    1088 calls)
     cegterg      :     15.57s CPU     16.84s WALL (     448 calls)

     Called by sum_band:
     sum_band:bec :      0.00s CPU      0.01s WALL (     448 calls)
     addusdens    :      0.28s CPU      0.31s WALL (       7 calls)

     Called by *egterg:
     h_psi        :     14.74s CPU     16.06s WALL (    1502 calls)
     s_psi        :      0.28s CPU      0.29s WALL (    1502 calls)
     g_psi        :      0.03s CPU      0.04s WALL (     990 calls)
     cdiaghg      :      0.52s CPU      0.51s WALL (    1374 calls)

     Called by h_psi:
     h_psi:pot    :     14.71s CPU     16.02s WALL (    1502 calls)
     h_psi:calbec :      0.38s CPU      0.48s WALL (    1502 calls)
     vloc_psi     :     14.01s CPU     15.22s WALL (    1502 calls)
     add_vuspsi   :      0.30s CPU      0.32s WALL (    1502 calls)

     General routines
     calbec       :      0.78s CPU      0.88s WALL (    2270 calls)
     fft          :      0.48s CPU      0.54s WALL (     137 calls)
     ffts         :      0.01s CPU      0.02s WALL (      14 calls)
     fftw         :     16.17s CPU     17.47s WALL (   29242 calls)
     interpolate  :      0.03s CPU      0.03s WALL (      14 calls)
     davcio       :      0.00s CPU      0.00s WALL (      64 calls)

     Parallel routines
     fft_scatter  :      3.96s CPU      4.32s WALL (   29393 calls)

     PWSCF        :    33.52s CPU        36.11s WALL


   This run was terminated on:  13:47:19   9Jun2017            

=------------------------------------------------------------------------------=
   JOB DONE.
=------------------------------------------------------------------------------=
