
     Program PWSCF v.6.0 (svn rev. 13079) starts on  9Jun2017 at 13:45:40 

     This program is part of the open-source Quantum ESPRESSO suite
     for quantum simulation of materials; please cite
         "P. Giannozzi et al., J. Phys.:Condens. Matter 21 395502 (2009);
          URL http://www.quantum-espresso.org", 
     in publications or presentations arising from this work. More details at
     http://www.quantum-espresso.org/quote

     Parallel version (MPI), running on     4 processors
     R & G space division:  proc/nbgrp/npool/nimage =       4
     Waiting for input...
     Reading input from standard input
Warning: card &IONS ignored
Warning: card ION_DYNAMICS='BFGS', ignored
Warning: card / ignored
Warning: card &CELL ignored
Warning: card CELL_DYNAMICS='BFGS', ignored
Warning: card PRESS = 0.0, ignored
Warning: card CELL_FACTOR = 2.0, ignored
Warning: card / ignored

     Current dimensions of program PWSCF are:
     Max number of different atomic species (ntypx) = 10
     Max number of k-points (npk) =  40000
     Max angular momentum in pseudopotentials (lmaxx) =  3
               file Al.pbe-nl-kjpaw_psl.1.0.0.UPF: wavefunction(s)  3S 3P renormalized
               file Al.pbe-nl-kjpaw_psl.1.0.0.UPF: wavefunction(s)  3S 3P renormalized
               file Al.pbe-nl-kjpaw_psl.1.0.0.UPF: wavefunction(s)  3S 3P renormalized
               file Al.pbe-nl-kjpaw_psl.1.0.0.UPF: wavefunction(s)  3S 3P renormalized

     Subspace diagonalization in iterative solution of the eigenvalue problem:
     a serial algorithm will be used


     Parallelization info
     --------------------
     sticks:   dense  smooth     PW     G-vecs:    dense   smooth      PW
     Min         230     162     50                 5294     3094     539
     Max         231     163     52                 5297     3095     540
     Sum         923     649    203                21181    12377    2159



     bravais-lattice index     =            0
     lattice parameter (alat)  =       7.6205  a.u.
     unit-cell volume          =     442.5300 (a.u.)^3
     number of atoms/cell      =            4
     number of atomic types    =            4
     number of electrons       =        12.00
     number of Kohn-Sham states=           10
     kinetic-energy cutoff     =      35.0000  Ry
     charge density cutoff     =     200.0000  Ry
     convergence threshold     =      1.0E-06
     mixing beta               =       0.3000
     number of iterations used =           10  TF        mixing
     Exchange-correlation      =  SLA  PW   PBX  PBC ( 1  4  3  4 0 0)

     celldm(1)=   7.620455  celldm(2)=   0.000000  celldm(3)=   0.000000
     celldm(4)=   0.000000  celldm(5)=   0.000000  celldm(6)=   0.000000

     crystal axes: (cart. coord. in units of alat)
               a(1) = (   1.016000   0.000000   0.000000 )  
               a(2) = (   0.000000   0.984000   0.000000 )  
               a(3) = (   0.000000   0.000000   1.000256 )  

     reciprocal axes: (cart. coord. in units 2 pi/alat)
               b(1) = (  0.984252  0.000000  0.000000 )  
               b(2) = (  0.000000  1.016260  0.000000 )  
               b(3) = (  0.000000  0.000000  0.999744 )  


     PseudoPot. # 1 for Al read from file:
     /home/ben/espresso/pp/Al.pbe-nl-kjpaw_psl.1.0.0.UPF
     MD5 check sum: 339dbea23cf3ab9a065ad45c0f9085d7
     Pseudo is Projector augmented-wave + core cor, Zval =  3.0
     Generated using "atomic" code by A. Dal Corso  v.5.1
     Shape of augmentation charge: PSQ
     Using radial grid of 1135 points,  4 beta functions with: 
                l(1) =   0
                l(2) =   0
                l(3) =   1
                l(4) =   1
     Q(r) pseudized with 0 coefficients 


     PseudoPot. # 2 for Al read from file:
     /home/ben/espresso/pp/Al.pbe-nl-kjpaw_psl.1.0.0.UPF
     MD5 check sum: 339dbea23cf3ab9a065ad45c0f9085d7
     Pseudo is Projector augmented-wave + core cor, Zval =  3.0
     Generated using "atomic" code by A. Dal Corso  v.5.1
     Shape of augmentation charge: PSQ
     Using radial grid of 1135 points,  4 beta functions with: 
                l(1) =   0
                l(2) =   0
                l(3) =   1
                l(4) =   1
     Q(r) pseudized with 0 coefficients 


     PseudoPot. # 3 for Al read from file:
     /home/ben/espresso/pp/Al.pbe-nl-kjpaw_psl.1.0.0.UPF
     MD5 check sum: 339dbea23cf3ab9a065ad45c0f9085d7
     Pseudo is Projector augmented-wave + core cor, Zval =  3.0
     Generated using "atomic" code by A. Dal Corso  v.5.1
     Shape of augmentation charge: PSQ
     Using radial grid of 1135 points,  4 beta functions with: 
                l(1) =   0
                l(2) =   0
                l(3) =   1
                l(4) =   1
     Q(r) pseudized with 0 coefficients 


     PseudoPot. # 4 for Al read from file:
     /home/ben/espresso/pp/Al.pbe-nl-kjpaw_psl.1.0.0.UPF
     MD5 check sum: 339dbea23cf3ab9a065ad45c0f9085d7
     Pseudo is Projector augmented-wave + core cor, Zval =  3.0
     Generated using "atomic" code by A. Dal Corso  v.5.1
     Shape of augmentation charge: PSQ
     Using radial grid of 1135 points,  4 beta functions with: 
                l(1) =   0
                l(2) =   0
                l(3) =   1
                l(4) =   1
     Q(r) pseudized with 0 coefficients 


     atomic species   valence    mass     pseudopotential
        Al1            3.00    26.98200     Al( 1.00)
        Al2            3.00    26.98200     Al( 1.00)
        Al3            3.00    26.98200     Al( 1.00)
        Al4            3.00    26.98200     Al( 1.00)

      8 Sym. Ops., with inversion, found



   Cartesian axes

     site n.     atom                  positions (alat units)
         1           Al1 tau(   1) = (   0.0000000   0.0000000   0.0000000  )
         2           Al2 tau(   2) = (   0.5080000   0.4920000   0.0000000  )
         3           Al3 tau(   3) = (   0.5080000   0.0000000   0.5001280  )
         4           Al4 tau(   4) = (   0.0000000   0.4920000   0.5001280  )

     number of k points=    64  Marzari-Vanderbilt smearing, width (Ry)=  0.0200
                       cart. coord. in units 2pi/alat
        k(    1) = (   0.0703037   0.0725900   0.0714103), wk =   0.0466472
        k(    2) = (   0.0703037   0.0725900   0.2142309), wk =   0.0466472
        k(    3) = (   0.0703037   0.0725900   0.3570514), wk =   0.0466472
        k(    4) = (   0.0703037   0.0725900  -0.4998720), wk =   0.0233236
        k(    5) = (   0.0703037   0.2177700   0.0714103), wk =   0.0466472
        k(    6) = (   0.0703037   0.2177700   0.2142309), wk =   0.0466472
        k(    7) = (   0.0703037   0.2177700   0.3570514), wk =   0.0466472
        k(    8) = (   0.0703037   0.2177700  -0.4998720), wk =   0.0233236
        k(    9) = (   0.0703037   0.3629501   0.0714103), wk =   0.0466472
        k(   10) = (   0.0703037   0.3629501   0.2142309), wk =   0.0466472
        k(   11) = (   0.0703037   0.3629501   0.3570514), wk =   0.0466472
        k(   12) = (   0.0703037   0.3629501  -0.4998720), wk =   0.0233236
        k(   13) = (   0.0703037  -0.5081301   0.0714103), wk =   0.0233236
        k(   14) = (   0.0703037  -0.5081301   0.2142309), wk =   0.0233236
        k(   15) = (   0.0703037  -0.5081301   0.3570514), wk =   0.0233236
        k(   16) = (   0.0703037  -0.5081301  -0.4998720), wk =   0.0116618
        k(   17) = (   0.2109111   0.0725900   0.0714103), wk =   0.0466472
        k(   18) = (   0.2109111   0.0725900   0.2142309), wk =   0.0466472
        k(   19) = (   0.2109111   0.0725900   0.3570514), wk =   0.0466472
        k(   20) = (   0.2109111   0.0725900  -0.4998720), wk =   0.0233236
        k(   21) = (   0.2109111   0.2177700   0.0714103), wk =   0.0466472
        k(   22) = (   0.2109111   0.2177700   0.2142309), wk =   0.0466472
        k(   23) = (   0.2109111   0.2177700   0.3570514), wk =   0.0466472
        k(   24) = (   0.2109111   0.2177700  -0.4998720), wk =   0.0233236
        k(   25) = (   0.2109111   0.3629501   0.0714103), wk =   0.0466472
        k(   26) = (   0.2109111   0.3629501   0.2142309), wk =   0.0466472
        k(   27) = (   0.2109111   0.3629501   0.3570514), wk =   0.0466472
        k(   28) = (   0.2109111   0.3629501  -0.4998720), wk =   0.0233236
        k(   29) = (   0.2109111  -0.5081301   0.0714103), wk =   0.0233236
        k(   30) = (   0.2109111  -0.5081301   0.2142309), wk =   0.0233236
        k(   31) = (   0.2109111  -0.5081301   0.3570514), wk =   0.0233236
        k(   32) = (   0.2109111  -0.5081301  -0.4998720), wk =   0.0116618
        k(   33) = (   0.3515186   0.0725900   0.0714103), wk =   0.0466472
        k(   34) = (   0.3515186   0.0725900   0.2142309), wk =   0.0466472
        k(   35) = (   0.3515186   0.0725900   0.3570514), wk =   0.0466472
        k(   36) = (   0.3515186   0.0725900  -0.4998720), wk =   0.0233236
        k(   37) = (   0.3515186   0.2177700   0.0714103), wk =   0.0466472
        k(   38) = (   0.3515186   0.2177700   0.2142309), wk =   0.0466472
        k(   39) = (   0.3515186   0.2177700   0.3570514), wk =   0.0466472
        k(   40) = (   0.3515186   0.2177700  -0.4998720), wk =   0.0233236
        k(   41) = (   0.3515186   0.3629501   0.0714103), wk =   0.0466472
        k(   42) = (   0.3515186   0.3629501   0.2142309), wk =   0.0466472
        k(   43) = (   0.3515186   0.3629501   0.3570514), wk =   0.0466472
        k(   44) = (   0.3515186   0.3629501  -0.4998720), wk =   0.0233236
        k(   45) = (   0.3515186  -0.5081301   0.0714103), wk =   0.0233236
        k(   46) = (   0.3515186  -0.5081301   0.2142309), wk =   0.0233236
        k(   47) = (   0.3515186  -0.5081301   0.3570514), wk =   0.0233236
        k(   48) = (   0.3515186  -0.5081301  -0.4998720), wk =   0.0116618
        k(   49) = (  -0.4921260   0.0725900   0.0714103), wk =   0.0233236
        k(   50) = (  -0.4921260   0.0725900   0.2142309), wk =   0.0233236
        k(   51) = (  -0.4921260   0.0725900   0.3570514), wk =   0.0233236
        k(   52) = (  -0.4921260   0.0725900  -0.4998720), wk =   0.0116618
        k(   53) = (  -0.4921260   0.2177700   0.0714103), wk =   0.0233236
        k(   54) = (  -0.4921260   0.2177700   0.2142309), wk =   0.0233236
        k(   55) = (  -0.4921260   0.2177700   0.3570514), wk =   0.0233236
        k(   56) = (  -0.4921260   0.2177700  -0.4998720), wk =   0.0116618
        k(   57) = (  -0.4921260   0.3629501   0.0714103), wk =   0.0233236
        k(   58) = (  -0.4921260   0.3629501   0.2142309), wk =   0.0233236
        k(   59) = (  -0.4921260   0.3629501   0.3570514), wk =   0.0233236
        k(   60) = (  -0.4921260   0.3629501  -0.4998720), wk =   0.0116618
        k(   61) = (  -0.4921260  -0.5081301   0.0714103), wk =   0.0116618
        k(   62) = (  -0.4921260  -0.5081301   0.2142309), wk =   0.0116618
        k(   63) = (  -0.4921260  -0.5081301   0.3570514), wk =   0.0116618
        k(   64) = (  -0.4921260  -0.5081301  -0.4998720), wk =   0.0058309

     Dense  grid:    21181 G-vectors     FFT dimensions: (  36,  36,  36)

     Smooth grid:    12377 G-vectors     FFT dimensions: (  30,  30,  30)

     Estimated max dynamical RAM per process >       8.01Mb

     Estimated total allocated dynamical RAM >      32.05Mb

     Initial potential from superposition of free atoms

     starting charge   11.99084, renormalised to   12.00000
     Starting wfc are   16 randomized atomic wfcs
     Checking if some PAW data can be deallocated... 

     total cpu time spent up to now is        3.2 secs

     per-process dynamical memory:    17.3 Mb

     Self-consistent Calculation

     iteration #  1     ecut=    35.00 Ry     beta=0.30
     Davidson diagonalization with overlap
     ethr =  1.00E-02,  avg # of iterations =  3.4

     Threshold (ethr) on eigenvalues was too large:
     Diagonalizing with lowered threshold

     Davidson diagonalization with overlap
     ethr =  1.98E-04,  avg # of iterations =  3.3

     total cpu time spent up to now is       10.5 secs

     total energy              =    -158.01001318 Ry
     Harris-Foulkes estimate   =    -158.01210218 Ry
     estimated scf accuracy    <       0.02298102 Ry

     iteration #  2     ecut=    35.00 Ry     beta=0.30
     Davidson diagonalization with overlap
     ethr =  1.92E-04,  avg # of iterations =  1.0

     total cpu time spent up to now is       15.9 secs

     total energy              =    -158.00570079 Ry
     Harris-Foulkes estimate   =    -158.01013473 Ry
     estimated scf accuracy    <       0.01430076 Ry

     iteration #  3     ecut=    35.00 Ry     beta=0.30
     Davidson diagonalization with overlap
     ethr =  1.19E-04,  avg # of iterations =  1.0

     total cpu time spent up to now is       20.3 secs

     total energy              =    -158.00597677 Ry
     Harris-Foulkes estimate   =    -158.00596616 Ry
     estimated scf accuracy    <       0.00003609 Ry

     iteration #  4     ecut=    35.00 Ry     beta=0.30
     Davidson diagonalization with overlap
     ethr =  3.01E-07,  avg # of iterations =  4.0

     total cpu time spent up to now is       23.2 secs

     total energy              =    -158.00605327 Ry
     Harris-Foulkes estimate   =    -158.00603604 Ry
     estimated scf accuracy    <       0.00001801 Ry

     iteration #  5     ecut=    35.00 Ry     beta=0.30
     Davidson diagonalization with overlap
     ethr =  1.50E-07,  avg # of iterations =  1.0

     total cpu time spent up to now is       24.8 secs

     total energy              =    -158.00605133 Ry
     Harris-Foulkes estimate   =    -158.00605421 Ry
     estimated scf accuracy    <       0.00000655 Ry

     iteration #  6     ecut=    35.00 Ry     beta=0.30
     Davidson diagonalization with overlap
     ethr =  5.46E-08,  avg # of iterations =  2.0

     total cpu time spent up to now is       26.6 secs

     End of self-consistent calculation

          k = 0.0703 0.0726 0.0714 (  1541 PWs)   bands (ev):

    -3.0736   4.1997   4.4137   4.6476   6.9057   7.2312   7.5798  11.3734
    11.5964  11.7995

          k = 0.0703 0.0726 0.2142 (  1541 PWs)   bands (ev):

    -2.7030   2.3754   4.5483   4.9941   7.2517   7.9130   9.4227   9.8383
     9.9064  12.0822

          k = 0.0703 0.0726 0.3571 (  1542 PWs)   bands (ev):

    -1.9646   0.5882   5.2428   5.6835   7.6458   7.8301   8.2470   8.6497
    10.5102  11.1622

          k = 0.0703 0.0726-0.4999 (  1540 PWs)   bands (ev):

    -0.8646  -0.8642   6.2609   6.2613   6.7438   6.7443   8.9054   8.9057
     9.9175   9.9181

          k = 0.0703 0.2178 0.0714 (  1542 PWs)   bands (ev):

    -2.6907   2.5515   4.5598   4.7727   7.2628   7.5834   9.5845   9.7834
    10.3266  11.7342

          k = 0.0703 0.2178 0.2142 (  1547 PWs)   bands (ev):

    -2.3211   2.7433   2.9071   4.9066   7.4752   7.9878   9.7187   9.8363
    10.3335  10.6984

          k = 0.0703 0.2178 0.3571 (  1550 PWs)   bands (ev):

    -1.5847   0.9614   3.6153   5.5762   6.0975   8.0318   8.3712  10.5843
    10.6527  11.5548

          k = 0.0703 0.2178-0.4999 (  1560 PWs)   bands (ev):

    -0.4876  -0.4872   4.6676   4.6680   6.6575   6.6580   9.3908   9.3912
    11.6147  11.6151

          k = 0.0703 0.3630 0.0714 (  1554 PWs)   bands (ev):

    -1.9280   0.7080   5.2769   5.4873   7.7321   7.8044   8.1925   8.3746
    10.6137  10.9301

          k = 0.0703 0.3630 0.2142 (  1551 PWs)   bands (ev):

    -1.5603   1.0688   3.4760   5.5934   6.0476   8.1324   8.3934  10.4517
    10.6323  11.2909

          k = 0.0703 0.3630 0.3571 (  1554 PWs)   bands (ev):

    -0.8278   1.7047   1.7878   4.2695   6.3353   8.7479   8.8267   9.0866
    11.2290  11.4609

          k = 0.0703 0.3630-0.4999 (  1556 PWs)   bands (ev):

     0.2635   0.2640   2.8587   2.8591   7.3704   7.3709   9.8598   9.8603
    10.1190  10.1194

          k = 0.0703-0.5081 0.0714 (  1548 PWs)   bands (ev):

    -0.7917  -0.7916   6.3083   6.3084   6.6048   6.6050   8.8988   8.8989
     9.7141   9.7143

          k = 0.0703-0.5081 0.2142 (  1548 PWs)   bands (ev):

    -0.4270  -0.4268   4.5651   4.5652   6.7139   6.7141   9.4448   9.4449
    11.5150  11.5153

          k = 0.0703-0.5081 0.3571 (  1562 PWs)   bands (ev):

     0.2997   0.2999   2.8119   2.8120   7.4046   7.4048   9.8150   9.8151
    10.1532  10.1534

          k = 0.0703-0.5081-0.4999 (  1548 PWs)   bands (ev):

     1.3825   1.3827   1.3830   1.3831   8.4402   8.4405   8.4408   8.4408
    11.1820  11.1822

          k = 0.2109 0.0726 0.0714 (  1536 PWs)   bands (ev):

    -2.7143   2.2132   4.7508   4.9836   7.5630   7.9041   9.4704   9.5140
     9.6874  12.1331

          k = 0.2109 0.0726 0.2142 (  1541 PWs)   bands (ev):

    -2.3446   2.5699   2.7207   5.3275   7.4275   8.3648   9.7838   9.9212
    10.2341  10.3334

          k = 0.2109 0.0726 0.3571 (  1545 PWs)   bands (ev):

    -1.6081   0.9384   3.2806   5.6944   6.0754   8.4367   9.0163  10.4891
    10.6864  11.5591

          k = 0.2109 0.0726-0.4999 (  1544 PWs)   bands (ev):

    -0.5108  -0.5104   4.3381   4.3385   7.0696   7.0700  10.0169  10.0172
    11.6818  11.6823

          k = 0.2109 0.2178 0.0714 (  1544 PWs)   bands (ev):

    -2.3324   2.5817   2.8963   5.1077   7.5287   8.0948   9.7663   9.7801
    10.1934  10.6921

          k = 0.2109 0.2178 0.2142 (  1551 PWs)   bands (ev):

    -1.9637   2.9373   3.0875   3.2508   7.8367   7.9920   8.1328  10.2561
    10.6355  11.0456

          k = 0.2109 0.2178 0.3571 (  1548 PWs)   bands (ev):

    -1.2291   1.3107   3.6449   3.9549   6.1220   6.4252   8.6919  10.9266
    11.0963  11.7051

          k = 0.2109 0.2178-0.4999 (  1546 PWs)   bands (ev):

    -0.1346  -0.1342   4.6565   4.6569   5.0770   5.0775   9.7277   9.7281
    11.8784  11.8787

          k = 0.2109 0.3630 0.0714 (  1553 PWs)   bands (ev):

    -1.5715   1.0578   3.3157   5.7171   5.9696   8.3250   8.7046  10.4896
    10.4996  11.3582

          k = 0.2109 0.3630 0.2142 (  1548 PWs)   bands (ev):

    -1.2048   1.4178   3.6681   3.8167   6.2243   6.3693   8.5577  10.9479
    11.0418  11.3238

          k = 0.2109 0.3630 0.3571 (  1551 PWs)   bands (ev):

    -0.4741   2.0522   2.1350   4.3211   4.6873   6.8412   6.9212   9.3439
    11.6381  13.9019

          k = 0.2109 0.3630-0.4999 (  1550 PWs)   bands (ev):

     0.6147   0.6151   3.2015   3.2019   5.4487   5.4492   7.9640   7.9644
    12.6415  12.6419

          k = 0.2109-0.5081 0.0714 (  1556 PWs)   bands (ev):

    -0.4381  -0.4380   4.4073   4.4075   6.9102   6.9104   9.7477   9.7478
    11.5616  11.5617

          k = 0.2109-0.5081 0.2142 (  1544 PWs)   bands (ev):

    -0.0742  -0.0741   4.6841   4.6842   5.0047   5.0049   9.6279   9.6281
    11.8798  11.8799

          k = 0.2109-0.5081 0.3571 (  1556 PWs)   bands (ev):

     0.6508   0.6509   3.1549   3.1551   5.4833   5.4835   7.9187   7.9188
    12.6752  12.6754

          k = 0.2109-0.5081-0.4999 (  1564 PWs)   bands (ev):

     1.7308   1.7310   1.7313   1.7314   6.5300   6.5302   6.5305   6.5306
    13.6808  13.6812

          k = 0.3515 0.0726 0.0714 (  1530 PWs)   bands (ev):

    -1.9984   0.4779   5.4223   5.6526   7.7425   7.9046   8.3573   8.6294
    10.7231  11.0602

          k = 0.3515 0.0726 0.2142 (  1543 PWs)   bands (ev):

    -1.6306   0.8394   3.4088   5.7352   6.0650   8.3456   8.9961  10.7765
    10.8067  11.5350

          k = 0.3515 0.0726 0.3571 (  1552 PWs)   bands (ev):

    -0.8977   1.5597   1.6363   4.0480   6.7061   9.0384   9.1104   9.6957
    11.4335  11.9869

          k = 0.3515 0.0726-0.4999 (  1548 PWs)   bands (ev):

     0.1943   0.1947   2.6329   2.6333   7.7383   7.7388  10.0681  10.0686
    10.7268  10.7272

          k = 0.3515 0.2178 0.0714 (  1550 PWs)   bands (ev):

    -1.6184   0.8513   3.5832   5.7222   6.0277   8.1330   8.6620  10.7526
    10.8231  11.5723

          k = 0.3515 0.2178 0.2142 (  1547 PWs)   bands (ev):

    -1.2515   1.2120   3.7722   3.9337   6.1732   6.3314   8.8145  11.1460
    11.2854  11.6898

          k = 0.3515 0.2178 0.3571 (  1547 PWs)   bands (ev):

    -0.5205   1.9304   2.0067   4.3572   4.7159   7.0282   7.1015   9.4490
    12.3875  13.8308

          k = 0.3515 0.2178-0.4999 (  1550 PWs)   bands (ev):

     0.5686   0.5690   2.9996   3.0000   5.7109   5.7114   8.0701   8.0705
    13.3760  13.3764

          k = 0.3515 0.3630 0.0714 (  1553 PWs)   bands (ev):

    -0.8613   1.5954   1.7550   4.1636   6.5119   8.8481   8.9992   9.3808
    11.3256  11.6801

          k = 0.3515 0.3630 0.2142 (  1547 PWs)   bands (ev):

    -0.4964   1.9541   2.1132   4.3809   4.6586   6.8923   7.0456   9.3940
    11.9987  13.8273

          k = 0.3515 0.3630 0.3571 (  1547 PWs)   bands (ev):

     0.2309   2.6679   2.7434   2.8254   5.1607   5.2414   5.3154   7.6824
    14.5524  14.9912

          k = 0.3515 0.3630-0.4999 (  1546 PWs)   bands (ev):

     1.3143   1.3148   3.6722   3.6726   3.9692   3.9697   6.2910   6.2914
    15.4810  15.4815

          k = 0.3515-0.5081 0.0714 (  1550 PWs)   bands (ev):

     0.2665   0.2667   2.7037   2.7038   7.5797   7.5799   9.9136   9.9138
    10.4467  10.4469

          k = 0.3515-0.5081 0.2142 (  1540 PWs)   bands (ev):

     0.6287   0.6288   3.0583   3.0584   5.6088   5.6089   7.9693   7.9695
    13.0290  13.0292

          k = 0.3515-0.5081 0.3571 (  1546 PWs)   bands (ev):

     1.3502   1.3504   3.6837   3.6838   3.9465   3.9467   6.2452   6.2454
    15.5005  15.5006

          k = 0.3515-0.5081-0.4999 (  1552 PWs)   bands (ev):

     2.4240   2.4242   2.4244   2.4245   4.8450   4.8453   4.8455   4.8456
    16.4819  16.4821

          k =-0.4921 0.0726 0.0714 (  1540 PWs)   bands (ev):

    -0.9316  -0.9313   6.3903   6.3906   6.6991   6.6994   9.0925   9.0926
     9.9270   9.9274

          k =-0.4921 0.0726 0.2142 (  1548 PWs)   bands (ev):

    -0.5665  -0.5661   4.4327   4.4331   7.0179   7.0183   9.9748   9.9751
    11.8055  11.9980

          k =-0.4921 0.0726 0.3571 (  1546 PWs)   bands (ev):

     0.1611   0.1614   2.6762   2.6765   7.7072   7.7076  10.1094  10.1098
    10.6963  10.6966

          k =-0.4921 0.0726-0.4999 (  1556 PWs)   bands (ev):

     1.2450   1.2454   1.2455   1.2458   8.7391   8.7396   8.7397   8.7399
    11.7275  11.7277

          k =-0.4921 0.2178 0.0714 (  1542 PWs)   bands (ev):

    -0.5544  -0.5541   4.6046   4.6049   6.8022   6.8025   9.6495   9.6498
    11.7525  11.7528

          k =-0.4921 0.2178 0.2142 (  1542 PWs)   bands (ev):

    -0.1902  -0.1898   4.7238   4.7241   5.0514   5.0518   9.8190   9.8193
    12.1566  12.1568

          k =-0.4921 0.2178 0.3571 (  1538 PWs)   bands (ev):

     0.5355   0.5359   3.0427   3.0430   5.6793   5.6797   8.1118   8.1121
    13.3500  13.3503

          k =-0.4921 0.2178-0.4999 (  1552 PWs)   bands (ev):

     1.6166   1.6170   1.6171   1.6174   6.7250   6.7254   6.7255   6.7258
    14.3583  14.3588

          k =-0.4921 0.3630 0.0714 (  1554 PWs)   bands (ev):

     0.1971   0.1975   2.7938   2.7941   7.5144   7.5148   9.9996  10.0000
    10.3817  10.3820

          k =-0.4921 0.3630 0.2142 (  1542 PWs)   bands (ev):

     0.5595   0.5598   3.1478   3.1481   5.5426   5.5429   8.0563   8.0567
    12.9675  12.9678

          k =-0.4921 0.3630 0.3571 (  1540 PWs)   bands (ev):

     1.2815   1.2818   3.6935   3.6938   3.9587   3.9591   6.3332   6.3335
    15.8531  15.8534

          k =-0.4921 0.3630-0.4999 (  1544 PWs)   bands (ev):

     2.3560   2.3564   2.3565   2.3568   4.9335   4.9340   4.9341   4.9343
    17.2854  17.2858

          k =-0.4921-0.5081 0.0714 (  1560 PWs)   bands (ev):

     1.3167   1.3169   1.3171   1.3172   8.5823   8.5826   8.5828   8.5828
    11.4455  11.4458

          k =-0.4921-0.5081 0.2142 (  1548 PWs)   bands (ev):

     1.6762   1.6764   1.6766   1.6767   6.6233   6.6236   6.6238   6.6238
    14.0065  14.0069

          k =-0.4921-0.5081 0.3571 (  1548 PWs)   bands (ev):

     2.3915   2.3917   2.3919   2.3920   4.8874   4.8877   4.8879   4.8879
    16.8672  16.8674

          k =-0.4921-0.5081-0.4999 (  1544 PWs)   bands (ev):

     3.3504   3.3506   3.3507   3.3510   3.5846   3.5852   3.5853   3.5855
    19.0750  19.0754

     the Fermi energy is     7.9706 ev

!    total energy              =    -158.00605205 Ry
     Harris-Foulkes estimate   =    -158.00605223 Ry
     estimated scf accuracy    <       0.00000008 Ry

     total all-electron energy =     -1942.577180 Ry

     The total energy is the sum of the following terms:

     one-electron contribution =      12.71535163 Ry
     hartree contribution      =       0.02412013 Ry
     xc contribution           =     -10.37569757 Ry
     ewald contribution        =     -21.65921695 Ry
     one-center paw contrib.   =    -138.71002436 Ry
     smearing contrib. (-TS)   =      -0.00058494 Ry

     convergence has been achieved in   6 iterations

     Forces acting on atoms (Ry/au):

     atom    1 type  1   force =     0.00000000    0.00000000    0.00000000
     atom    2 type  2   force =     0.00000000    0.00000000    0.00000000
     atom    3 type  3   force =     0.00000000    0.00000000    0.00000000
     atom    4 type  4   force =     0.00000000    0.00000000    0.00000000

     Total force =     0.000000     Total SCF correction =     0.000000


     entering subroutine stress ...

          total   stress  (Ry/bohr**3)                   (kbar)     P=    0.98
  -0.00000414   0.00000000   0.00000000         -0.61      0.00      0.00
   0.00000000  -0.00001422   0.00000000          0.00     -2.09      0.00
   0.00000000   0.00000000   0.00003832          0.00      0.00      5.64


     Writing output data file template.save

     init_run     :      2.08s CPU      2.11s WALL (       1 calls)
     electrons    :     22.35s CPU     23.41s WALL (       1 calls)
     forces       :      0.73s CPU      0.73s WALL (       1 calls)
     stress       :      1.79s CPU      1.80s WALL (       1 calls)

     Called by init_run:
     wfcinit      :      0.88s CPU      0.90s WALL (       1 calls)
     potinit      :      0.31s CPU      0.31s WALL (       1 calls)

     Called by electrons:
     c_bands      :     17.34s CPU     18.26s WALL (       7 calls)
     sum_band     :      3.89s CPU      3.97s WALL (       7 calls)
     v_of_rho     :      0.16s CPU      0.18s WALL (       7 calls)
     newd         :      0.20s CPU      0.22s WALL (       7 calls)
     PAW_pot      :      0.82s CPU      0.84s WALL (       7 calls)
     mix_rho      :      0.02s CPU      0.02s WALL (       7 calls)

     Called by c_bands:
     init_us_2    :      0.41s CPU      0.43s WALL (    1088 calls)
     cegterg      :     16.79s CPU     17.68s WALL (     448 calls)

     Called by sum_band:
     sum_band:bec :      0.01s CPU      0.01s WALL (     448 calls)
     addusdens    :      0.26s CPU      0.28s WALL (       7 calls)

     Called by *egterg:
     h_psi        :     15.66s CPU     16.35s WALL (    1518 calls)
     s_psi        :      0.27s CPU      0.28s WALL (    1518 calls)
     g_psi        :      0.04s CPU      0.04s WALL (    1006 calls)
     cdiaghg      :      0.51s CPU      0.58s WALL (    1390 calls)

     Called by h_psi:
     h_psi:pot    :     15.62s CPU     16.31s WALL (    1518 calls)
     h_psi:calbec :      0.49s CPU      0.49s WALL (    1518 calls)
     vloc_psi     :     14.77s CPU     15.50s WALL (    1518 calls)
     add_vuspsi   :      0.35s CPU      0.31s WALL (    1518 calls)

     General routines
     calbec       :      0.81s CPU      0.76s WALL (    2286 calls)
     fft          :      0.18s CPU      0.18s WALL (     137 calls)
     ffts         :      0.02s CPU      0.01s WALL (      14 calls)
     fftw         :     17.09s CPU     17.92s WALL (   29290 calls)
     interpolate  :      0.04s CPU      0.03s WALL (      14 calls)
     davcio       :      0.00s CPU      0.00s WALL (      64 calls)

     Parallel routines
     fft_scatter  :      4.21s CPU      4.32s WALL (   29441 calls)

     PWSCF        :    28.07s CPU        29.32s WALL


   This run was terminated on:  13:46: 9   9Jun2017            

=------------------------------------------------------------------------------=
   JOB DONE.
=------------------------------------------------------------------------------=
