
     Program PWSCF v.6.0 (svn rev. 13079) starts on  9Jun2017 at 13:44:14 

     This program is part of the open-source Quantum ESPRESSO suite
     for quantum simulation of materials; please cite
         "P. Giannozzi et al., J. Phys.:Condens. Matter 21 395502 (2009);
          URL http://www.quantum-espresso.org", 
     in publications or presentations arising from this work. More details at
     http://www.quantum-espresso.org/quote

     Parallel version (MPI), running on     4 processors
     R & G space division:  proc/nbgrp/npool/nimage =       4
     Waiting for input...
     Reading input from standard input
Warning: card &IONS ignored
Warning: card ION_DYNAMICS='BFGS', ignored
Warning: card / ignored
Warning: card &CELL ignored
Warning: card CELL_DYNAMICS='BFGS', ignored
Warning: card PRESS = 0.0, ignored
Warning: card CELL_FACTOR = 2.0, ignored
Warning: card / ignored

     Current dimensions of program PWSCF are:
     Max number of different atomic species (ntypx) = 10
     Max number of k-points (npk) =  40000
     Max angular momentum in pseudopotentials (lmaxx) =  3
               file Al.pbe-nl-kjpaw_psl.1.0.0.UPF: wavefunction(s)  3S 3P renormalized
               file Al.pbe-nl-kjpaw_psl.1.0.0.UPF: wavefunction(s)  3S 3P renormalized
               file Al.pbe-nl-kjpaw_psl.1.0.0.UPF: wavefunction(s)  3S 3P renormalized
               file Al.pbe-nl-kjpaw_psl.1.0.0.UPF: wavefunction(s)  3S 3P renormalized

     Subspace diagonalization in iterative solution of the eigenvalue problem:
     a serial algorithm will be used


     Parallelization info
     --------------------
     sticks:   dense  smooth     PW     G-vecs:    dense   smooth      PW
     Min         231     162     50                 5286     3096     534
     Max         232     163     51                 5287     3097     535
     Sum         927     649    203                21145    12385    2139



     bravais-lattice index     =            0
     lattice parameter (alat)  =       7.6205  a.u.
     unit-cell volume          =     442.5300 (a.u.)^3
     number of atoms/cell      =            4
     number of atomic types    =            4
     number of electrons       =        12.00
     number of Kohn-Sham states=           10
     kinetic-energy cutoff     =      35.0000  Ry
     charge density cutoff     =     200.0000  Ry
     convergence threshold     =      1.0E-06
     mixing beta               =       0.3000
     number of iterations used =           10  TF        mixing
     Exchange-correlation      =  SLA  PW   PBX  PBC ( 1  4  3  4 0 0)

     celldm(1)=   7.620455  celldm(2)=   0.000000  celldm(3)=   0.000000
     celldm(4)=   0.000000  celldm(5)=   0.000000  celldm(6)=   0.000000

     crystal axes: (cart. coord. in units of alat)
               a(1) = (   1.010000   0.000000   0.000000 )  
               a(2) = (   0.000000   0.990000   0.000000 )  
               a(3) = (   0.000000   0.000000   1.000100 )  

     reciprocal axes: (cart. coord. in units 2 pi/alat)
               b(1) = (  0.990099  0.000000  0.000000 )  
               b(2) = (  0.000000  1.010101  0.000000 )  
               b(3) = (  0.000000  0.000000  0.999900 )  


     PseudoPot. # 1 for Al read from file:
     /home/ben/espresso/pp/Al.pbe-nl-kjpaw_psl.1.0.0.UPF
     MD5 check sum: 339dbea23cf3ab9a065ad45c0f9085d7
     Pseudo is Projector augmented-wave + core cor, Zval =  3.0
     Generated using "atomic" code by A. Dal Corso  v.5.1
     Shape of augmentation charge: PSQ
     Using radial grid of 1135 points,  4 beta functions with: 
                l(1) =   0
                l(2) =   0
                l(3) =   1
                l(4) =   1
     Q(r) pseudized with 0 coefficients 


     PseudoPot. # 2 for Al read from file:
     /home/ben/espresso/pp/Al.pbe-nl-kjpaw_psl.1.0.0.UPF
     MD5 check sum: 339dbea23cf3ab9a065ad45c0f9085d7
     Pseudo is Projector augmented-wave + core cor, Zval =  3.0
     Generated using "atomic" code by A. Dal Corso  v.5.1
     Shape of augmentation charge: PSQ
     Using radial grid of 1135 points,  4 beta functions with: 
                l(1) =   0
                l(2) =   0
                l(3) =   1
                l(4) =   1
     Q(r) pseudized with 0 coefficients 


     PseudoPot. # 3 for Al read from file:
     /home/ben/espresso/pp/Al.pbe-nl-kjpaw_psl.1.0.0.UPF
     MD5 check sum: 339dbea23cf3ab9a065ad45c0f9085d7
     Pseudo is Projector augmented-wave + core cor, Zval =  3.0
     Generated using "atomic" code by A. Dal Corso  v.5.1
     Shape of augmentation charge: PSQ
     Using radial grid of 1135 points,  4 beta functions with: 
                l(1) =   0
                l(2) =   0
                l(3) =   1
                l(4) =   1
     Q(r) pseudized with 0 coefficients 


     PseudoPot. # 4 for Al read from file:
     /home/ben/espresso/pp/Al.pbe-nl-kjpaw_psl.1.0.0.UPF
     MD5 check sum: 339dbea23cf3ab9a065ad45c0f9085d7
     Pseudo is Projector augmented-wave + core cor, Zval =  3.0
     Generated using "atomic" code by A. Dal Corso  v.5.1
     Shape of augmentation charge: PSQ
     Using radial grid of 1135 points,  4 beta functions with: 
                l(1) =   0
                l(2) =   0
                l(3) =   1
                l(4) =   1
     Q(r) pseudized with 0 coefficients 


     atomic species   valence    mass     pseudopotential
        Al1            3.00    26.98200     Al( 1.00)
        Al2            3.00    26.98200     Al( 1.00)
        Al3            3.00    26.98200     Al( 1.00)
        Al4            3.00    26.98200     Al( 1.00)

      8 Sym. Ops., with inversion, found



   Cartesian axes

     site n.     atom                  positions (alat units)
         1           Al1 tau(   1) = (   0.0000000   0.0000000   0.0000000  )
         2           Al2 tau(   2) = (   0.5050000   0.4950000   0.0000000  )
         3           Al3 tau(   3) = (   0.5050000   0.0000000   0.5000500  )
         4           Al4 tau(   4) = (   0.0000000   0.4950000   0.5000500  )

     number of k points=    64  Marzari-Vanderbilt smearing, width (Ry)=  0.0200
                       cart. coord. in units 2pi/alat
        k(    1) = (   0.0707214   0.0721501   0.0714214), wk =   0.0466472
        k(    2) = (   0.0707214   0.0721501   0.2142643), wk =   0.0466472
        k(    3) = (   0.0707214   0.0721501   0.3571071), wk =   0.0466472
        k(    4) = (   0.0707214   0.0721501  -0.4999500), wk =   0.0233236
        k(    5) = (   0.0707214   0.2164502   0.0714214), wk =   0.0466472
        k(    6) = (   0.0707214   0.2164502   0.2142643), wk =   0.0466472
        k(    7) = (   0.0707214   0.2164502   0.3571071), wk =   0.0466472
        k(    8) = (   0.0707214   0.2164502  -0.4999500), wk =   0.0233236
        k(    9) = (   0.0707214   0.3607504   0.0714214), wk =   0.0466472
        k(   10) = (   0.0707214   0.3607504   0.2142643), wk =   0.0466472
        k(   11) = (   0.0707214   0.3607504   0.3571071), wk =   0.0466472
        k(   12) = (   0.0707214   0.3607504  -0.4999500), wk =   0.0233236
        k(   13) = (   0.0707214  -0.5050505   0.0714214), wk =   0.0233236
        k(   14) = (   0.0707214  -0.5050505   0.2142643), wk =   0.0233236
        k(   15) = (   0.0707214  -0.5050505   0.3571071), wk =   0.0233236
        k(   16) = (   0.0707214  -0.5050505  -0.4999500), wk =   0.0116618
        k(   17) = (   0.2121641   0.0721501   0.0714214), wk =   0.0466472
        k(   18) = (   0.2121641   0.0721501   0.2142643), wk =   0.0466472
        k(   19) = (   0.2121641   0.0721501   0.3571071), wk =   0.0466472
        k(   20) = (   0.2121641   0.0721501  -0.4999500), wk =   0.0233236
        k(   21) = (   0.2121641   0.2164502   0.0714214), wk =   0.0466472
        k(   22) = (   0.2121641   0.2164502   0.2142643), wk =   0.0466472
        k(   23) = (   0.2121641   0.2164502   0.3571071), wk =   0.0466472
        k(   24) = (   0.2121641   0.2164502  -0.4999500), wk =   0.0233236
        k(   25) = (   0.2121641   0.3607504   0.0714214), wk =   0.0466472
        k(   26) = (   0.2121641   0.3607504   0.2142643), wk =   0.0466472
        k(   27) = (   0.2121641   0.3607504   0.3571071), wk =   0.0466472
        k(   28) = (   0.2121641   0.3607504  -0.4999500), wk =   0.0233236
        k(   29) = (   0.2121641  -0.5050505   0.0714214), wk =   0.0233236
        k(   30) = (   0.2121641  -0.5050505   0.2142643), wk =   0.0233236
        k(   31) = (   0.2121641  -0.5050505   0.3571071), wk =   0.0233236
        k(   32) = (   0.2121641  -0.5050505  -0.4999500), wk =   0.0116618
        k(   33) = (   0.3536068   0.0721501   0.0714214), wk =   0.0466472
        k(   34) = (   0.3536068   0.0721501   0.2142643), wk =   0.0466472
        k(   35) = (   0.3536068   0.0721501   0.3571071), wk =   0.0466472
        k(   36) = (   0.3536068   0.0721501  -0.4999500), wk =   0.0233236
        k(   37) = (   0.3536068   0.2164502   0.0714214), wk =   0.0466472
        k(   38) = (   0.3536068   0.2164502   0.2142643), wk =   0.0466472
        k(   39) = (   0.3536068   0.2164502   0.3571071), wk =   0.0466472
        k(   40) = (   0.3536068   0.2164502  -0.4999500), wk =   0.0233236
        k(   41) = (   0.3536068   0.3607504   0.0714214), wk =   0.0466472
        k(   42) = (   0.3536068   0.3607504   0.2142643), wk =   0.0466472
        k(   43) = (   0.3536068   0.3607504   0.3571071), wk =   0.0466472
        k(   44) = (   0.3536068   0.3607504  -0.4999500), wk =   0.0233236
        k(   45) = (   0.3536068  -0.5050505   0.0714214), wk =   0.0233236
        k(   46) = (   0.3536068  -0.5050505   0.2142643), wk =   0.0233236
        k(   47) = (   0.3536068  -0.5050505   0.3571071), wk =   0.0233236
        k(   48) = (   0.3536068  -0.5050505  -0.4999500), wk =   0.0116618
        k(   49) = (  -0.4950495   0.0721501   0.0714214), wk =   0.0233236
        k(   50) = (  -0.4950495   0.0721501   0.2142643), wk =   0.0233236
        k(   51) = (  -0.4950495   0.0721501   0.3571071), wk =   0.0233236
        k(   52) = (  -0.4950495   0.0721501  -0.4999500), wk =   0.0116618
        k(   53) = (  -0.4950495   0.2164502   0.0714214), wk =   0.0233236
        k(   54) = (  -0.4950495   0.2164502   0.2142643), wk =   0.0233236
        k(   55) = (  -0.4950495   0.2164502   0.3571071), wk =   0.0233236
        k(   56) = (  -0.4950495   0.2164502  -0.4999500), wk =   0.0116618
        k(   57) = (  -0.4950495   0.3607504   0.0714214), wk =   0.0233236
        k(   58) = (  -0.4950495   0.3607504   0.2142643), wk =   0.0233236
        k(   59) = (  -0.4950495   0.3607504   0.3571071), wk =   0.0233236
        k(   60) = (  -0.4950495   0.3607504  -0.4999500), wk =   0.0116618
        k(   61) = (  -0.4950495  -0.5050505   0.0714214), wk =   0.0116618
        k(   62) = (  -0.4950495  -0.5050505   0.2142643), wk =   0.0116618
        k(   63) = (  -0.4950495  -0.5050505   0.3571071), wk =   0.0116618
        k(   64) = (  -0.4950495  -0.5050505  -0.4999500), wk =   0.0058309

     Dense  grid:    21145 G-vectors     FFT dimensions: (  36,  36,  36)

     Smooth grid:    12385 G-vectors     FFT dimensions: (  30,  30,  30)

     Estimated max dynamical RAM per process >       8.01Mb

     Estimated total allocated dynamical RAM >      32.03Mb

     Initial potential from superposition of free atoms

     starting charge   11.99084, renormalised to   12.00000
     Starting wfc are   16 randomized atomic wfcs
     Checking if some PAW data can be deallocated... 

     total cpu time spent up to now is        3.1 secs

     per-process dynamical memory:    17.3 Mb

     Self-consistent Calculation

     iteration #  1     ecut=    35.00 Ry     beta=0.30
     Davidson diagonalization with overlap
     ethr =  1.00E-02,  avg # of iterations =  3.3

     Threshold (ethr) on eigenvalues was too large:
     Diagonalizing with lowered threshold

     Davidson diagonalization with overlap
     ethr =  1.99E-04,  avg # of iterations =  3.2

     total cpu time spent up to now is        7.0 secs

     total energy              =    -158.01007473 Ry
     Harris-Foulkes estimate   =    -158.01217277 Ry
     estimated scf accuracy    <       0.02303443 Ry

     iteration #  2     ecut=    35.00 Ry     beta=0.30
     Davidson diagonalization with overlap
     ethr =  1.92E-04,  avg # of iterations =  1.1

     total cpu time spent up to now is        8.4 secs

     total energy              =    -158.00573444 Ry
     Harris-Foulkes estimate   =    -158.01019234 Ry
     estimated scf accuracy    <       0.01434087 Ry

     iteration #  3     ecut=    35.00 Ry     beta=0.30
     Davidson diagonalization with overlap
     ethr =  1.20E-04,  avg # of iterations =  1.2

     total cpu time spent up to now is        9.8 secs

     total energy              =    -158.00601307 Ry
     Harris-Foulkes estimate   =    -158.00600114 Ry
     estimated scf accuracy    <       0.00003616 Ry

     iteration #  4     ecut=    35.00 Ry     beta=0.30
     Davidson diagonalization with overlap
     ethr =  3.01E-07,  avg # of iterations =  4.2

     total cpu time spent up to now is       15.7 secs

     total energy              =    -158.00608866 Ry
     Harris-Foulkes estimate   =    -158.00607178 Ry
     estimated scf accuracy    <       0.00001746 Ry

     iteration #  5     ecut=    35.00 Ry     beta=0.30
     Davidson diagonalization with overlap
     ethr =  1.45E-07,  avg # of iterations =  1.0

     total cpu time spent up to now is       20.6 secs

     total energy              =    -158.00608683 Ry
     Harris-Foulkes estimate   =    -158.00608962 Ry
     estimated scf accuracy    <       0.00000622 Ry

     iteration #  6     ecut=    35.00 Ry     beta=0.30
     Davidson diagonalization with overlap
     ethr =  5.18E-08,  avg # of iterations =  2.0

     total cpu time spent up to now is       25.5 secs

     End of self-consistent calculation

          k = 0.0707 0.0722 0.0714 (  1544 PWs)   bands (ev):

    -3.0738   4.2799   4.4159   4.5596   7.0282   7.2344   7.4495  11.4523
    11.5892  11.7184

          k = 0.0707 0.0722 0.2143 (  1541 PWs)   bands (ev):

    -2.7031   2.3769   4.6282   4.9067   7.3729   7.7867   9.4973   9.7572
     9.9104  11.9352

          k = 0.0707 0.0722 0.3571 (  1539 PWs)   bands (ev):

    -1.9644   0.5892   5.3222   5.5974   7.7146   7.8623   8.2511   8.5364
    10.6259  11.0344

          k = 0.0707 0.0722-0.5000 (  1542 PWs)   bands (ev):

    -0.8640  -0.8637   6.3279   6.3283   6.6710   6.6715   8.9767   8.9769
     9.8384   9.8389

          k = 0.0707 0.2165 0.0714 (  1542 PWs)   bands (ev):

    -2.6955   2.4853   4.6353   4.7706   7.3796   7.5826   9.5973   9.7237
    10.1699  11.8070

          k = 0.0707 0.2165 0.2143 (  1547 PWs)   bands (ev):

    -2.3257   2.7404   2.8412   4.9818   7.5194   8.0000   9.7834   9.8485
    10.3348  10.5536

          k = 0.0707 0.2165 0.3571 (  1551 PWs)   bands (ev):

    -1.5891   0.9578   3.5502   5.6404   6.0466   8.1052   8.4879  10.5975
    10.7173  11.4513

          k = 0.0707 0.2165-0.5000 (  1552 PWs)   bands (ev):

    -0.4916  -0.4912   4.6040   4.6043   6.7313   6.7318   9.5070   9.5073
    11.6278  11.6283

          k = 0.0707 0.3608 0.0714 (  1548 PWs)   bands (ev):

    -1.9419   0.6629   5.3431   5.4768   7.7627   7.8268   8.2372   8.3703
    10.6909  10.8913

          k = 0.0707 0.3608 0.2143 (  1554 PWs)   bands (ev):

    -1.5741   1.0240   3.4644   5.6486   6.0181   8.1670   8.5016  10.5161
    10.6736  11.3197

          k = 0.0707 0.3608 0.3571 (  1555 PWs)   bands (ev):

    -0.8413   1.6924   1.7435   4.2274   6.4007   8.8127   8.8612   9.1964
    11.2631  11.5698

          k = 0.0707 0.3608-0.5000 (  1558 PWs)   bands (ev):

     0.2505   0.2509   2.8152   2.8156   7.4357   7.4361   9.8941   9.8945
    10.2291  10.2295

          k = 0.0707-0.5051 0.0714 (  1548 PWs)   bands (ev):

    -0.8192  -0.8190   6.3470   6.3472   6.5956   6.5958   8.9550   8.9551
     9.7305   9.7307

          k = 0.0707-0.5051 0.2143 (  1546 PWs)   bands (ev):

    -0.4542  -0.4541   4.5409   4.5410   6.7661   6.7663   9.5398   9.5399
    11.5667  11.5669

          k = 0.0707-0.5051 0.3571 (  1562 PWs)   bands (ev):

     0.2729   0.2730   2.7864   2.7865   7.4568   7.4569   9.8665   9.8667
    10.2502  10.2503

          k = 0.0707-0.5051-0.5000 (  1540 PWs)   bands (ev):

     1.3562   1.3564   1.3567   1.3568   8.4921   8.4924   8.4927   8.4927
    11.2796  11.2799

          k = 0.2122 0.0722 0.0714 (  1536 PWs)   bands (ev):

    -2.7102   2.2739   4.7569   4.9000   7.5698   7.7808   9.5279   9.6615
     9.6617  12.0566

          k = 0.2122 0.0722 0.2143 (  1543 PWs)   bands (ev):

    -2.3405   2.6306   2.7263   5.2447   7.4715   8.2539   9.8690   9.9020
    10.2176  10.3341

          k = 0.2122 0.0722 0.3571 (  1544 PWs)   bands (ev):

    -1.6037   0.9435   3.3410   5.7289   6.0179   8.3582   8.8913  10.6016
    10.6613  11.4674

          k = 0.2122 0.0722-0.5000 (  1554 PWs)   bands (ev):

    -0.5061  -0.5057   4.3981   4.3984   6.9887   6.9891   9.8995   9.8998
    11.6903  11.6923

          k = 0.2122 0.2165 0.0714 (  1547 PWs)   bands (ev):

    -2.3329   2.6378   2.8344   5.1096   7.5258   8.0949   9.8131   9.8570
    10.2024  10.5498

          k = 0.2122 0.2165 0.2143 (  1542 PWs)   bands (ev):

    -1.9641   2.9934   3.0888   3.1892   7.8916   7.9869   8.0766  10.3982
    10.6391  10.8918

          k = 0.2122 0.2165 0.3571 (  1551 PWs)   bands (ev):

    -1.2293   1.3113   3.7006   3.8943   6.1771   6.3665   8.6869  11.0689
    11.0923  11.5563

          k = 0.2122 0.2165-0.5000 (  1546 PWs)   bands (ev):

    -0.1345  -0.1341   4.6930   4.6933   5.0362   5.0367   9.7231   9.7235
    11.9874  11.9876

          k = 0.2122 0.3608 0.0714 (  1556 PWs)   bands (ev):

    -1.5812   1.0170   3.3626   5.7205   5.9752   8.2896   8.6989  10.5467
    10.5907  11.3545

          k = 0.2122 0.3608 0.2143 (  1548 PWs)   bands (ev):

    -1.2143   1.3773   3.7149   3.8092   6.2400   6.3322   8.6044  11.0588
    11.0818  11.3202

          k = 0.2122 0.3608 0.3571 (  1548 PWs)   bands (ev):

    -0.4833   2.0439   2.0949   4.3503   4.6664   6.8879   6.9371   9.3604
    11.7731  14.0138

          k = 0.2122 0.3608-0.5000 (  1544 PWs)   bands (ev):

     0.6059   0.6063   3.1623   3.1627   5.4953   5.4957   7.9802   7.9806
    12.7756  12.7760

          k = 0.2122-0.5051 0.0714 (  1544 PWs)   bands (ev):

    -0.4613  -0.4612   4.4407   4.4408   6.8910   6.8911   9.7319   9.7321
    11.5965  11.8591

          k = 0.2122-0.5051 0.2143 (  1552 PWs)   bands (ev):

    -0.0973  -0.0971   4.7016   4.7017   5.0002   5.0003   9.6618   9.6620
    11.9666  11.9667

          k = 0.2122-0.5051 0.3571 (  1552 PWs)   bands (ev):

     0.6281   0.6283   3.1337   3.1339   5.5166   5.5168   7.9523   7.9525
    12.7961  12.7962

          k = 0.2122-0.5051-0.5000 (  1552 PWs)   bands (ev):

     1.7088   1.7090   1.7092   1.7093   6.5635   6.5638   6.5640   6.5641
    13.8022  13.8025

          k = 0.3536 0.0722 0.0714 (  1533 PWs)   bands (ev):

    -1.9859   0.5192   5.4362   5.5777   7.7745   7.8718   8.3580   8.5243
    10.7617  10.9701

          k = 0.3536 0.0722 0.2143 (  1542 PWs)   bands (ev):

    -1.6180   0.8807   3.4224   5.7486   6.0174   8.3001   8.8784  10.7379
    10.7645  11.4716

          k = 0.3536 0.0722 0.3571 (  1560 PWs)   bands (ev):

    -0.8850   1.6010   1.6496   4.0889   6.6323   8.9933   9.0392   9.5772
    11.3907  11.8975

          k = 0.3536 0.0722-0.5000 (  1554 PWs)   bands (ev):

     0.2073   0.2077   2.6741   2.6745   7.6655   7.6659  10.0241  10.0246
    10.6092  10.6095

          k = 0.3536 0.2165 0.0714 (  1553 PWs)   bands (ev):

    -1.6105   0.8880   3.5297   5.7242   6.0110   8.1696   8.6723  10.7048
    10.8069  11.4806

          k = 0.3536 0.2165 0.2143 (  1546 PWs)   bands (ev):

    -1.2435   1.2487   3.7815   3.8808   6.2096   6.3069   8.7649  11.1239
    11.2962  11.5457

          k = 0.3536 0.2165 0.3571 (  1544 PWs)   bands (ev):

    -0.5124   1.9671   2.0155   4.3742   4.6830   7.0040   7.0505   9.4260
    12.2415  13.9810

          k = 0.3536 0.2165-0.5000 (  1546 PWs)   bands (ev):

     0.5771   0.5775   3.0362   3.0366   5.6591   5.6595   8.0464   8.0468
    13.2356  13.2360

          k = 0.3536 0.3608 0.0714 (  1555 PWs)   bands (ev):

    -0.8626   1.6229   1.7227   4.1601   6.5130   8.8766   8.9710   9.3828
    11.3247  11.7083

          k = 0.3536 0.3608 0.2143 (  1543 PWs)   bands (ev):

    -0.4975   1.9817   2.0810   4.3800   4.6564   6.9204   7.0162   9.3922
    12.0019  13.9630

          k = 0.3536 0.3608 0.3571 (  1544 PWs)   bands (ev):

     0.2300   2.6954   2.7434   2.7939   5.1884   5.2380   5.2851   7.6799
    14.7178  14.9962

          k = 0.3536 0.3608-0.5000 (  1546 PWs)   bands (ev):

     1.3138   1.3142   3.6843   3.6846   3.9537   3.9542   6.2881   6.2885
    15.6322  15.6324

          k = 0.3536-0.5051 0.0714 (  1554 PWs)   bands (ev):

     0.2518   0.2519   2.7177   2.7178   7.5682   7.5684   9.9294   9.9296
    10.4361  10.4363

          k = 0.3536-0.5051 0.2143 (  1552 PWs)   bands (ev):

     0.6141   0.6143   3.0723   3.0725   5.5963   5.5965   7.9845   7.9847
    13.0208  13.0209

          k = 0.3536-0.5051 0.3571 (  1546 PWs)   bands (ev):

     1.3360   1.3361   3.6879   3.6880   3.9433   3.9435   6.2600   6.2601
    15.6287  15.6288

          k = 0.3536-0.5051-0.5000 (  1548 PWs)   bands (ev):

     2.4102   2.4104   2.4107   2.4108   4.8593   4.8596   4.8599   4.8599
    16.6282  16.6284

          k =-0.4950 0.0722 0.0714 (  1544 PWs)   bands (ev):

    -0.9066  -0.9063   6.4007   6.4010   6.6519   6.6523   9.0777   9.0778
     9.8619   9.8624

          k =-0.4950 0.0722 0.2143 (  1546 PWs)   bands (ev):

    -0.5414  -0.5411   4.4582   4.4585   6.9559   6.9563   9.8713   9.8715
    11.7479  11.7483

          k =-0.4950 0.0722 0.3571 (  1558 PWs)   bands (ev):

     0.1862   0.1865   2.7016   2.7019   7.6457   7.6460  10.0503  10.0507
    10.5896  10.5899

          k =-0.4950 0.0722-0.5000 (  1560 PWs)   bands (ev):

     1.2703   1.2707   1.2707   1.2710   8.6787   8.6791   8.6792   8.6795
    11.6207  11.6209

          k =-0.4950 0.2165 0.0714 (  1546 PWs)   bands (ev):

    -0.5340  -0.5337   4.5639   4.5642   6.8234   6.8237   9.6704   9.6707
    11.7157  11.7161

          k =-0.4950 0.2165 0.2143 (  1544 PWs)   bands (ev):

    -0.1697  -0.1694   4.7274   4.7277   5.0282   5.0286   9.7812   9.7815
    12.1430  12.1432

          k =-0.4950 0.2165 0.3571 (  1540 PWs)   bands (ev):

     0.5561   0.5564   3.0635   3.0638   5.6390   5.6393   8.0729   8.0733
    13.2180  13.2182

          k =-0.4950 0.2165-0.5000 (  1548 PWs)   bands (ev):

     1.6374   1.6377   1.6378   1.6381   6.6853   6.6857   6.6858   6.6860
    14.2259  14.2262

          k =-0.4950 0.3608 0.0714 (  1558 PWs)   bands (ev):

     0.2084   0.2087   2.7740   2.7743   7.5274   7.5277   9.9831   9.9835
    10.3955  10.3958

          k =-0.4950 0.3608 0.2143 (  1542 PWs)   bands (ev):

     0.5709   0.5712   3.1283   3.1286   5.5549   5.5552   8.0389   8.0392
    12.9821  12.9824

          k =-0.4950 0.3608 0.3571 (  1544 PWs)   bands (ev):

     1.2930   1.2933   3.6944   3.6946   3.9505   3.9509   6.3149   6.3152
    15.8554  15.8556

          k =-0.4950 0.3608-0.5000 (  1548 PWs)   bands (ev):

     2.3678   2.3681   2.3682   2.3685   4.9146   4.9150   4.9151   4.9154
    17.1308  17.1312

          k =-0.4950-0.5051 0.0714 (  1556 PWs)   bands (ev):

     1.3145   1.3147   1.3148   1.3149   8.5826   8.5829   8.5830   8.5831
    11.4466  11.4468

          k =-0.4950-0.5051 0.2143 (  1560 PWs)   bands (ev):

     1.6741   1.6743   1.6744   1.6745   6.6228   6.6231   6.6232   6.6233
    14.0088  14.0092

          k =-0.4950-0.5051 0.3571 (  1552 PWs)   bands (ev):

     2.3896   2.3898   2.3900   2.3901   4.8863   4.8866   4.8868   4.8868
    16.8730  16.8734

          k =-0.4950-0.5051-0.5000 (  1552 PWs)   bands (ev):

     3.3494   3.3495   3.3496   3.3500   3.5825   3.5831   3.5832   3.5834
    19.2141  19.2146

     the Fermi energy is     7.9634 ev

!    total energy              =    -158.00608748 Ry
     Harris-Foulkes estimate   =    -158.00608766 Ry
     estimated scf accuracy    <       0.00000008 Ry

     total all-electron energy =     -1942.577215 Ry

     The total energy is the sum of the following terms:

     one-electron contribution =      12.71462238 Ry
     hartree contribution      =       0.02409286 Ry
     xc contribution           =     -10.37548150 Ry
     ewald contribution        =     -21.65937283 Ry
     one-center paw contrib.   =    -138.70965543 Ry
     smearing contrib. (-TS)   =      -0.00029297 Ry

     convergence has been achieved in   6 iterations

     Forces acting on atoms (Ry/au):

     atom    1 type  1   force =     0.00000000    0.00000000    0.00000000
     atom    2 type  2   force =     0.00000000    0.00000000    0.00000000
     atom    3 type  3   force =     0.00000000    0.00000000    0.00000000
     atom    4 type  4   force =     0.00000000    0.00000000    0.00000000

     Total force =     0.000000     Total SCF correction =     0.000000


     entering subroutine stress ...

          total   stress  (Ry/bohr**3)                   (kbar)     P=    0.33
  -0.00002125   0.00000000   0.00000000         -3.13      0.00      0.00
   0.00000000   0.00001182   0.00000000          0.00      1.74      0.00
   0.00000000   0.00000000   0.00001606          0.00      0.00      2.36


     Writing output data file template.save

     init_run     :      2.02s CPU      2.05s WALL (       1 calls)
     electrons    :     21.45s CPU     22.40s WALL (       1 calls)
     forces       :      0.78s CPU      0.79s WALL (       1 calls)
     stress       :      1.73s CPU      1.75s WALL (       1 calls)

     Called by init_run:
     wfcinit      :      0.75s CPU      0.76s WALL (       1 calls)
     potinit      :      0.36s CPU      0.36s WALL (       1 calls)

     Called by electrons:
     c_bands      :     17.02s CPU     17.83s WALL (       7 calls)
     sum_band     :      3.39s CPU      3.51s WALL (       7 calls)
     v_of_rho     :      0.13s CPU      0.15s WALL (       7 calls)
     newd         :      0.20s CPU      0.21s WALL (       7 calls)
     PAW_pot      :      0.78s CPU      0.78s WALL (       7 calls)
     mix_rho      :      0.02s CPU      0.02s WALL (       7 calls)

     Called by c_bands:
     init_us_2    :      0.38s CPU      0.38s WALL (    1088 calls)
     cegterg      :     16.52s CPU     17.32s WALL (     448 calls)

     Called by sum_band:
     sum_band:bec :      0.00s CPU      0.01s WALL (     448 calls)
     addusdens    :      0.25s CPU      0.24s WALL (       7 calls)

     Called by *egterg:
     h_psi        :     15.36s CPU     15.95s WALL (    1535 calls)
     s_psi        :      0.24s CPU      0.26s WALL (    1535 calls)
     g_psi        :      0.04s CPU      0.03s WALL (    1023 calls)
     cdiaghg      :      0.53s CPU      0.56s WALL (    1407 calls)

     Called by h_psi:
     h_psi:pot    :     15.33s CPU     15.92s WALL (    1535 calls)
     h_psi:calbec :      0.40s CPU      0.42s WALL (    1535 calls)
     vloc_psi     :     14.64s CPU     15.20s WALL (    1535 calls)
     add_vuspsi   :      0.28s CPU      0.29s WALL (    1535 calls)

     General routines
     calbec       :      0.68s CPU      0.64s WALL (    2303 calls)
     fft          :      0.19s CPU      0.21s WALL (     137 calls)
     ffts         :      0.02s CPU      0.01s WALL (      14 calls)
     fftw         :     16.66s CPU     17.29s WALL (   29338 calls)
     interpolate  :      0.02s CPU      0.03s WALL (      14 calls)
     davcio       :      0.00s CPU      0.00s WALL (      64 calls)

     Parallel routines
     fft_scatter  :      3.83s CPU      4.02s WALL (   29489 calls)

     PWSCF        :    27.10s CPU        28.24s WALL


   This run was terminated on:  13:44:42   9Jun2017            

=------------------------------------------------------------------------------=
   JOB DONE.
=------------------------------------------------------------------------------=
