
     Program PWSCF v.6.0 (svn rev. 13079) starts on  9Jun2017 at 13:42:38 

     This program is part of the open-source Quantum ESPRESSO suite
     for quantum simulation of materials; please cite
         "P. Giannozzi et al., J. Phys.:Condens. Matter 21 395502 (2009);
          URL http://www.quantum-espresso.org", 
     in publications or presentations arising from this work. More details at
     http://www.quantum-espresso.org/quote

     Parallel version (MPI), running on     4 processors
     R & G space division:  proc/nbgrp/npool/nimage =       4
     Waiting for input...
     Reading input from standard input
Warning: card &IONS ignored
Warning: card ION_DYNAMICS='BFGS', ignored
Warning: card / ignored
Warning: card &CELL ignored
Warning: card CELL_DYNAMICS='BFGS', ignored
Warning: card PRESS = 0.0, ignored
Warning: card CELL_FACTOR = 2.0, ignored
Warning: card / ignored

     Current dimensions of program PWSCF are:
     Max number of different atomic species (ntypx) = 10
     Max number of k-points (npk) =  40000
     Max angular momentum in pseudopotentials (lmaxx) =  3
               file Al.pbe-nl-kjpaw_psl.1.0.0.UPF: wavefunction(s)  3S 3P renormalized
               file Al.pbe-nl-kjpaw_psl.1.0.0.UPF: wavefunction(s)  3S 3P renormalized
               file Al.pbe-nl-kjpaw_psl.1.0.0.UPF: wavefunction(s)  3S 3P renormalized
               file Al.pbe-nl-kjpaw_psl.1.0.0.UPF: wavefunction(s)  3S 3P renormalized

     Subspace diagonalization in iterative solution of the eigenvalue problem:
     a serial algorithm will be used


     Parallelization info
     --------------------
     sticks:   dense  smooth     PW     G-vecs:    dense   smooth      PW
     Min         232     162     50                 5283     3096     530
     Max         233     163     51                 5284     3099     531
     Sum         929     649    201                21135    12389    2121



     bravais-lattice index     =            0
     lattice parameter (alat)  =       7.6205  a.u.
     unit-cell volume          =     442.5300 (a.u.)^3
     number of atoms/cell      =            4
     number of atomic types    =            4
     number of electrons       =        12.00
     number of Kohn-Sham states=           10
     kinetic-energy cutoff     =      35.0000  Ry
     charge density cutoff     =     200.0000  Ry
     convergence threshold     =      1.0E-06
     mixing beta               =       0.3000
     number of iterations used =           10  TF        mixing
     Exchange-correlation      =  SLA  PW   PBX  PBC ( 1  4  3  4 0 0)

     celldm(1)=   7.620455  celldm(2)=   0.000000  celldm(3)=   0.000000
     celldm(4)=   0.000000  celldm(5)=   0.000000  celldm(6)=   0.000000

     crystal axes: (cart. coord. in units of alat)
               a(1) = (   1.004000   0.000000   0.000000 )  
               a(2) = (   0.000000   0.996000   0.000000 )  
               a(3) = (   0.000000   0.000000   1.000016 )  

     reciprocal axes: (cart. coord. in units 2 pi/alat)
               b(1) = (  0.996016  0.000000  0.000000 )  
               b(2) = (  0.000000  1.004016  0.000000 )  
               b(3) = (  0.000000  0.000000  0.999984 )  


     PseudoPot. # 1 for Al read from file:
     /home/ben/espresso/pp/Al.pbe-nl-kjpaw_psl.1.0.0.UPF
     MD5 check sum: 339dbea23cf3ab9a065ad45c0f9085d7
     Pseudo is Projector augmented-wave + core cor, Zval =  3.0
     Generated using "atomic" code by A. Dal Corso  v.5.1
     Shape of augmentation charge: PSQ
     Using radial grid of 1135 points,  4 beta functions with: 
                l(1) =   0
                l(2) =   0
                l(3) =   1
                l(4) =   1
     Q(r) pseudized with 0 coefficients 


     PseudoPot. # 2 for Al read from file:
     /home/ben/espresso/pp/Al.pbe-nl-kjpaw_psl.1.0.0.UPF
     MD5 check sum: 339dbea23cf3ab9a065ad45c0f9085d7
     Pseudo is Projector augmented-wave + core cor, Zval =  3.0
     Generated using "atomic" code by A. Dal Corso  v.5.1
     Shape of augmentation charge: PSQ
     Using radial grid of 1135 points,  4 beta functions with: 
                l(1) =   0
                l(2) =   0
                l(3) =   1
                l(4) =   1
     Q(r) pseudized with 0 coefficients 


     PseudoPot. # 3 for Al read from file:
     /home/ben/espresso/pp/Al.pbe-nl-kjpaw_psl.1.0.0.UPF
     MD5 check sum: 339dbea23cf3ab9a065ad45c0f9085d7
     Pseudo is Projector augmented-wave + core cor, Zval =  3.0
     Generated using "atomic" code by A. Dal Corso  v.5.1
     Shape of augmentation charge: PSQ
     Using radial grid of 1135 points,  4 beta functions with: 
                l(1) =   0
                l(2) =   0
                l(3) =   1
                l(4) =   1
     Q(r) pseudized with 0 coefficients 


     PseudoPot. # 4 for Al read from file:
     /home/ben/espresso/pp/Al.pbe-nl-kjpaw_psl.1.0.0.UPF
     MD5 check sum: 339dbea23cf3ab9a065ad45c0f9085d7
     Pseudo is Projector augmented-wave + core cor, Zval =  3.0
     Generated using "atomic" code by A. Dal Corso  v.5.1
     Shape of augmentation charge: PSQ
     Using radial grid of 1135 points,  4 beta functions with: 
                l(1) =   0
                l(2) =   0
                l(3) =   1
                l(4) =   1
     Q(r) pseudized with 0 coefficients 


     atomic species   valence    mass     pseudopotential
        Al1            3.00    26.98200     Al( 1.00)
        Al2            3.00    26.98200     Al( 1.00)
        Al3            3.00    26.98200     Al( 1.00)
        Al4            3.00    26.98200     Al( 1.00)

      8 Sym. Ops., with inversion, found



   Cartesian axes

     site n.     atom                  positions (alat units)
         1           Al1 tau(   1) = (   0.0000000   0.0000000   0.0000000  )
         2           Al2 tau(   2) = (   0.5020000   0.4980000   0.0000000  )
         3           Al3 tau(   3) = (   0.5020000   0.0000000   0.5000080  )
         4           Al4 tau(   4) = (   0.0000000   0.4980000   0.5000080  )

     number of k points=    64  Marzari-Vanderbilt smearing, width (Ry)=  0.0200
                       cart. coord. in units 2pi/alat
        k(    1) = (   0.0711440   0.0717154   0.0714274), wk =   0.0466472
        k(    2) = (   0.0711440   0.0717154   0.2142823), wk =   0.0466472
        k(    3) = (   0.0711440   0.0717154   0.3571371), wk =   0.0466472
        k(    4) = (   0.0711440   0.0717154  -0.4999920), wk =   0.0233236
        k(    5) = (   0.0711440   0.2151463   0.0714274), wk =   0.0466472
        k(    6) = (   0.0711440   0.2151463   0.2142823), wk =   0.0466472
        k(    7) = (   0.0711440   0.2151463   0.3571371), wk =   0.0466472
        k(    8) = (   0.0711440   0.2151463  -0.4999920), wk =   0.0233236
        k(    9) = (   0.0711440   0.3585772   0.0714274), wk =   0.0466472
        k(   10) = (   0.0711440   0.3585772   0.2142823), wk =   0.0466472
        k(   11) = (   0.0711440   0.3585772   0.3571371), wk =   0.0466472
        k(   12) = (   0.0711440   0.3585772  -0.4999920), wk =   0.0233236
        k(   13) = (   0.0711440  -0.5020080   0.0714274), wk =   0.0233236
        k(   14) = (   0.0711440  -0.5020080   0.2142823), wk =   0.0233236
        k(   15) = (   0.0711440  -0.5020080   0.3571371), wk =   0.0233236
        k(   16) = (   0.0711440  -0.5020080  -0.4999920), wk =   0.0116618
        k(   17) = (   0.2134320   0.0717154   0.0714274), wk =   0.0466472
        k(   18) = (   0.2134320   0.0717154   0.2142823), wk =   0.0466472
        k(   19) = (   0.2134320   0.0717154   0.3571371), wk =   0.0466472
        k(   20) = (   0.2134320   0.0717154  -0.4999920), wk =   0.0233236
        k(   21) = (   0.2134320   0.2151463   0.0714274), wk =   0.0466472
        k(   22) = (   0.2134320   0.2151463   0.2142823), wk =   0.0466472
        k(   23) = (   0.2134320   0.2151463   0.3571371), wk =   0.0466472
        k(   24) = (   0.2134320   0.2151463  -0.4999920), wk =   0.0233236
        k(   25) = (   0.2134320   0.3585772   0.0714274), wk =   0.0466472
        k(   26) = (   0.2134320   0.3585772   0.2142823), wk =   0.0466472
        k(   27) = (   0.2134320   0.3585772   0.3571371), wk =   0.0466472
        k(   28) = (   0.2134320   0.3585772  -0.4999920), wk =   0.0233236
        k(   29) = (   0.2134320  -0.5020080   0.0714274), wk =   0.0233236
        k(   30) = (   0.2134320  -0.5020080   0.2142823), wk =   0.0233236
        k(   31) = (   0.2134320  -0.5020080   0.3571371), wk =   0.0233236
        k(   32) = (   0.2134320  -0.5020080  -0.4999920), wk =   0.0116618
        k(   33) = (   0.3557200   0.0717154   0.0714274), wk =   0.0466472
        k(   34) = (   0.3557200   0.0717154   0.2142823), wk =   0.0466472
        k(   35) = (   0.3557200   0.0717154   0.3571371), wk =   0.0466472
        k(   36) = (   0.3557200   0.0717154  -0.4999920), wk =   0.0233236
        k(   37) = (   0.3557200   0.2151463   0.0714274), wk =   0.0466472
        k(   38) = (   0.3557200   0.2151463   0.2142823), wk =   0.0466472
        k(   39) = (   0.3557200   0.2151463   0.3571371), wk =   0.0466472
        k(   40) = (   0.3557200   0.2151463  -0.4999920), wk =   0.0233236
        k(   41) = (   0.3557200   0.3585772   0.0714274), wk =   0.0466472
        k(   42) = (   0.3557200   0.3585772   0.2142823), wk =   0.0466472
        k(   43) = (   0.3557200   0.3585772   0.3571371), wk =   0.0466472
        k(   44) = (   0.3557200   0.3585772  -0.4999920), wk =   0.0233236
        k(   45) = (   0.3557200  -0.5020080   0.0714274), wk =   0.0233236
        k(   46) = (   0.3557200  -0.5020080   0.2142823), wk =   0.0233236
        k(   47) = (   0.3557200  -0.5020080   0.3571371), wk =   0.0233236
        k(   48) = (   0.3557200  -0.5020080  -0.4999920), wk =   0.0116618
        k(   49) = (  -0.4980080   0.0717154   0.0714274), wk =   0.0233236
        k(   50) = (  -0.4980080   0.0717154   0.2142823), wk =   0.0233236
        k(   51) = (  -0.4980080   0.0717154   0.3571371), wk =   0.0233236
        k(   52) = (  -0.4980080   0.0717154  -0.4999920), wk =   0.0116618
        k(   53) = (  -0.4980080   0.2151463   0.0714274), wk =   0.0233236
        k(   54) = (  -0.4980080   0.2151463   0.2142823), wk =   0.0233236
        k(   55) = (  -0.4980080   0.2151463   0.3571371), wk =   0.0233236
        k(   56) = (  -0.4980080   0.2151463  -0.4999920), wk =   0.0116618
        k(   57) = (  -0.4980080   0.3585772   0.0714274), wk =   0.0233236
        k(   58) = (  -0.4980080   0.3585772   0.2142823), wk =   0.0233236
        k(   59) = (  -0.4980080   0.3585772   0.3571371), wk =   0.0233236
        k(   60) = (  -0.4980080   0.3585772  -0.4999920), wk =   0.0116618
        k(   61) = (  -0.4980080  -0.5020080   0.0714274), wk =   0.0116618
        k(   62) = (  -0.4980080  -0.5020080   0.2142823), wk =   0.0116618
        k(   63) = (  -0.4980080  -0.5020080   0.3571371), wk =   0.0116618
        k(   64) = (  -0.4980080  -0.5020080  -0.4999920), wk =   0.0058309

     Dense  grid:    21135 G-vectors     FFT dimensions: (  36,  36,  36)

     Smooth grid:    12389 G-vectors     FFT dimensions: (  30,  30,  30)

     Estimated max dynamical RAM per process >       8.01Mb

     Estimated total allocated dynamical RAM >      32.03Mb

     Initial potential from superposition of free atoms

     starting charge   11.99084, renormalised to   12.00000
     Starting wfc are   16 randomized atomic wfcs
     Checking if some PAW data can be deallocated... 

     total cpu time spent up to now is        5.9 secs

     per-process dynamical memory:    17.3 Mb

     Self-consistent Calculation

     iteration #  1     ecut=    35.00 Ry     beta=0.30
     Davidson diagonalization with overlap
     ethr =  1.00E-02,  avg # of iterations =  3.3

     Threshold (ethr) on eigenvalues was too large:
     Diagonalizing with lowered threshold

     Davidson diagonalization with overlap
     ethr =  1.99E-04,  avg # of iterations =  2.9

     total cpu time spent up to now is       17.6 secs

     total energy              =    -158.01017654 Ry
     Harris-Foulkes estimate   =    -158.01227948 Ry
     estimated scf accuracy    <       0.02306515 Ry

     iteration #  2     ecut=    35.00 Ry     beta=0.30
     Davidson diagonalization with overlap
     ethr =  1.92E-04,  avg # of iterations =  1.2

     total cpu time spent up to now is       19.2 secs

     total energy              =    -158.00582575 Ry
     Harris-Foulkes estimate   =    -158.01029588 Ry
     estimated scf accuracy    <       0.01436152 Ry

     iteration #  3     ecut=    35.00 Ry     beta=0.30
     Davidson diagonalization with overlap
     ethr =  1.20E-04,  avg # of iterations =  1.1

     total cpu time spent up to now is       20.5 secs

     total energy              =    -158.00610294 Ry
     Harris-Foulkes estimate   =    -158.00609062 Ry
     estimated scf accuracy    <       0.00003654 Ry

     iteration #  4     ecut=    35.00 Ry     beta=0.30
     Davidson diagonalization with overlap
     ethr =  3.04E-07,  avg # of iterations =  5.0

     total cpu time spent up to now is       23.0 secs

     total energy              =    -158.00618085 Ry
     Harris-Foulkes estimate   =    -158.00616377 Ry
     estimated scf accuracy    <       0.00001723 Ry

     iteration #  5     ecut=    35.00 Ry     beta=0.30
     Davidson diagonalization with overlap
     ethr =  1.44E-07,  avg # of iterations =  1.0

     total cpu time spent up to now is       24.4 secs

     total energy              =    -158.00617877 Ry
     Harris-Foulkes estimate   =    -158.00618177 Ry
     estimated scf accuracy    <       0.00000647 Ry

     iteration #  6     ecut=    35.00 Ry     beta=0.30
     Davidson diagonalization with overlap
     ethr =  5.39E-08,  avg # of iterations =  2.0

     total cpu time spent up to now is       25.9 secs

     End of self-consistent calculation

          k = 0.0711 0.0717 0.0714 (  1538 PWs)   bands (ev):

    -3.0739   4.3618   4.4171   4.4736   7.1525   7.2360   7.3210  11.5315
    11.5854  11.6380

          k = 0.0711 0.0717 0.2143 (  1541 PWs)   bands (ev):

    -2.7031   2.3777   4.7098   4.8211   7.4955   7.6612   9.5735   9.6775
     9.9125  11.9313

          k = 0.0711 0.0717 0.3571 (  1541 PWs)   bands (ev):

    -1.9644   0.5897   5.4029   5.5130   7.7788   7.8458   8.3065   8.4288
    10.7452  10.9088

          k = 0.0711 0.0717-0.5000 (  1540 PWs)   bands (ev):

    -0.8638  -0.8634   6.3800   6.3803   6.6158   6.6163   9.0212   9.0214
     9.7897   9.7902

          k = 0.0711 0.2151 0.0714 (  1543 PWs)   bands (ev):

    -2.7001   2.4204   4.7125   4.7676   7.4982   7.5803   9.6130   9.6644
    10.0151  11.8810

          k = 0.0711 0.2151 0.2143 (  1548 PWs)   bands (ev):

    -2.3303   2.7369   2.7766   5.0586   7.5315   8.0468   9.8418   9.8626
    10.3352  10.4170

          k = 0.0711 0.2151 0.3571 (  1552 PWs)   bands (ev):

    -1.5935   0.9540   3.4861   5.6966   6.0057   8.1797   8.6067  10.6134
    10.7424  11.3913

          k = 0.0711 0.2151-0.5000 (  1552 PWs)   bands (ev):

    -0.4957  -0.4954   4.5412   4.5416   6.8067   6.8071   9.6241   9.6245
    11.6435  11.6439

          k = 0.0711 0.3586 0.0714 (  1543 PWs)   bands (ev):

    -1.9555   0.6188   5.4111   5.4655   7.7945   7.8259   8.3068   8.3659
    10.7712  10.8523

          k = 0.0711 0.3586 0.2143 (  1552 PWs)   bands (ev):

    -1.5876   0.9800   3.4524   5.6979   5.9963   8.2039   8.6121  10.5814
    10.7090  11.3557

          k = 0.0711 0.3586 0.3571 (  1555 PWs)   bands (ev):

    -0.8546   1.6798   1.6999   4.1855   6.4679   8.8789   8.8980   9.3083
    11.2990  11.6798

          k = 0.0711 0.3586-0.5000 (  1554 PWs)   bands (ev):

     0.2376   0.2379   2.7722   2.7726   7.5026   7.5030   9.9305   9.9309
    10.3411  10.3414

          k = 0.0711-0.5020 0.0714 (  1546 PWs)   bands (ev):

    -0.8460  -0.8459   6.3786   6.3788   6.5952   6.5953   9.0034   9.0034
     9.7564   9.7566

          k = 0.0711-0.5020 0.2143 (  1548 PWs)   bands (ev):

    -0.4810  -0.4808   4.5164   4.5166   6.8204   6.8206   9.6369   9.6370
    11.6196  11.6198

          k = 0.0711-0.5020 0.3571 (  1554 PWs)   bands (ev):

     0.2464   0.2466   2.7610   2.7611   7.5110   7.5111   9.9198   9.9199
    10.3494  10.3496

          k = 0.0711-0.5020-0.5000 (  1548 PWs)   bands (ev):

     1.3302   1.3304   1.3306   1.3307   8.5458   8.5461   8.5464   8.5464
    11.3795  11.3796

          k = 0.2134 0.0717 0.0714 (  1540 PWs)   bands (ev):

    -2.7060   2.3359   4.7621   4.8184   7.5752   7.6587   9.5860   9.6386
     9.8117  11.9806

          k = 0.2134 0.0717 0.2143 (  1545 PWs)   bands (ev):

    -2.3362   2.6924   2.7313   5.1637   7.5074   8.1534   9.8841   9.8906
    10.2680  10.3348

          k = 0.2134 0.0717 0.3571 (  1543 PWs)   bands (ev):

    -1.5993   0.9482   3.4025   5.7381   5.9880   8.2808   8.7681  10.6389
    10.6912  11.4028

          k = 0.2134 0.0717-0.5000 (  1544 PWs)   bands (ev):

    -0.5015  -0.5012   4.4589   4.4592   6.9096   6.9100   9.7815   9.7818
    11.6684  11.6689

          k = 0.2134 0.2151 0.0714 (  1546 PWs)   bands (ev):

    -2.3332   2.6952   2.7738   5.1106   7.5243   8.0950   9.8534   9.8814
    10.2665  10.4159

          k = 0.2134 0.2151 0.2143 (  1544 PWs)   bands (ev):

    -1.9643   3.0506   3.0894   3.1290   7.9467   7.9842   8.0207  10.5432
    10.6409  10.7406

          k = 0.2134 0.2151 0.3571 (  1548 PWs)   bands (ev):

    -1.2294   1.3116   3.7574   3.8349   6.2329   6.3087   8.6843  11.0901
    11.2132  11.4083

          k = 0.2134 0.2151-0.5000 (  1548 PWs)   bands (ev):

    -0.1344  -0.1340   4.7167   4.7170   5.0101   5.0106   9.7206   9.7210
    12.0639  12.0641

          k = 0.2134 0.3586 0.0714 (  1549 PWs)   bands (ev):

    -1.5905   0.9772   3.4110   5.7231   5.9830   8.2539   8.6921  10.5939
    10.6796  11.3655

          k = 0.2134 0.3586 0.2143 (  1545 PWs)   bands (ev):

    -1.2235   1.3376   3.7630   3.8014   6.2577   6.2952   8.6518  11.0769
    11.2181  11.3148

          k = 0.2134 0.3586 0.3571 (  1543 PWs)   bands (ev):

    -0.4923   2.0356   2.0556   4.3715   4.6553   6.9356   6.9549   9.3783
    11.9107  14.0971

          k = 0.2134 0.3586-0.5000 (  1542 PWs)   bands (ev):

     0.5971   0.5975   3.1238   3.1242   5.5430   5.5434   7.9980   7.9984
    12.9116  12.9120

          k = 0.2134-0.5020 0.0714 (  1544 PWs)   bands (ev):

    -0.4838  -0.4837   4.4757   4.4758   6.8713   6.8714   9.7149   9.7150
    11.6317  11.6319

          k = 0.2134-0.5020 0.2143 (  1552 PWs)   bands (ev):

    -0.1197  -0.1195   4.7153   4.7154   5.0008   5.0010   9.6966   9.6967
    12.0410  12.0411

          k = 0.2134-0.5020 0.3571 (  1544 PWs)   bands (ev):

     0.6060   0.6061   3.1126   3.1127   5.5515   5.5516   7.9871   7.9873
    12.9197  12.9198

          k = 0.2134-0.5020-0.5000 (  1552 PWs)   bands (ev):

     1.6870   1.6872   1.6874   1.6875   6.5984   6.5986   6.5989   6.5989
    13.9265  13.9265

          k = 0.3557 0.0717 0.0714 (  1539 PWs)   bands (ev):

    -1.9731   0.5613   5.4493   5.5049   7.8019   7.8384   8.3607   8.4248
    10.8005  10.8829

          k = 0.3557 0.0717 0.2143 (  1543 PWs)   bands (ev):

    -1.6051   0.9227   3.4356   5.7418   5.9921   8.2571   8.7629  10.6702
    10.7456  11.4163

          k = 0.3557 0.0717 0.3571 (  1562 PWs)   bands (ev):

    -0.8721   1.6429   1.6626   4.1302   6.5605   8.9508   8.9695   9.4607
    11.3501  11.8104

          k = 0.3557 0.0717-0.5000 (  1558 PWs)   bands (ev):

     0.2202   0.2206   2.7158   2.7162   7.5945   7.5949   9.9825   9.9829
    10.4932  10.4935

          k = 0.3557 0.2151 0.0714 (  1550 PWs)   bands (ev):

    -1.6022   0.9256   3.4778   5.7247   5.9972   8.2059   8.6814  10.6572
    10.7682  11.4138

          k = 0.3557 0.2151 0.2143 (  1543 PWs)   bands (ev):

    -1.2352   1.2862   3.7903   3.8294   6.2462   6.2845   8.7160  11.1030
    11.3053  11.4037

          k = 0.3557 0.2151 0.3571 (  1543 PWs)   bands (ev):

    -0.5039   2.0045   2.0242   4.3815   4.6615   6.9817   7.0006   9.4045
    12.0981  14.0975

          k = 0.3557 0.2151-0.5000 (  1542 PWs)   bands (ev):

     0.5856   0.5860   3.0734   3.0737   5.6085   5.6089   8.0245   8.0249
    13.0958  13.0962

          k = 0.3557 0.3586 0.0714 (  1561 PWs)   bands (ev):

    -0.8632   1.6516   1.6914   4.1581   6.5137   8.9050   8.9427   9.3838
    11.3242  11.7358

          k = 0.3557 0.3586 0.2143 (  1543 PWs)   bands (ev):

    -0.4981   2.0103   2.0500   4.3795   4.6553   6.9488   6.9871   9.3913
    12.0035  14.0774

          k = 0.3557 0.3586 0.3571 (  1544 PWs)   bands (ev):

     0.2295   2.7239   2.7433   2.7632   5.2167   5.2362   5.2554   7.6786
    14.8858  14.9993

          k = 0.3557 0.3586-0.5000 (  1544 PWs)   bands (ev):

     1.3136   1.3139   3.6914   3.6917   3.9448   3.9453   6.2865   6.2869
    15.7610  15.7613

          k = 0.3557-0.5020 0.0714 (  1556 PWs)   bands (ev):

     0.2379   0.2380   2.7330   2.7332   7.5564   7.5565   9.9454   9.9456
    10.4248  10.4249

          k = 0.3557-0.5020 0.2143 (  1546 PWs)   bands (ev):

     0.6003   0.6004   3.0876   3.0878   5.5839   5.5840   8.0002   8.0004
    13.0108  13.0110

          k = 0.3557-0.5020 0.3571 (  1546 PWs)   bands (ev):

     1.3223   1.3225   3.6913   3.6914   3.9424   3.9425   6.2755   6.2756
    15.7414  15.7417

          k = 0.3557-0.5020-0.5000 (  1552 PWs)   bands (ev):

     2.3970   2.3972   2.3974   2.3975   4.8747   4.8750   4.8752   4.8752
    16.7767  16.7771

          k =-0.4980 0.0717 0.0714 (  1544 PWs)   bands (ev):

    -0.8810  -0.8807   6.4008   6.4011   6.6168   6.6172   9.0528   9.0529
     9.8086   9.8090

          k =-0.4980 0.0717 0.2143 (  1546 PWs)   bands (ev):

    -0.5159  -0.5156   4.4833   4.4836   6.8962   6.8966   9.7696   9.7698
    11.6922  11.6923

          k =-0.4980 0.0717 0.3571 (  1558 PWs)   bands (ev):

     0.2117   0.2120   2.7270   2.7273   7.5865   7.5868   9.9932   9.9935
    10.4852  10.4855

          k =-0.4980 0.0717-0.5000 (  1552 PWs)   bands (ev):

     1.2958   1.2961   1.2962   1.2965   8.6204   8.6208   8.6209   8.6212
    11.5159  11.5161

          k =-0.4980 0.2151 0.0714 (  1548 PWs)   bands (ev):

    -0.5129  -0.5126   4.5249   4.5252   6.8442   6.8445   9.6902   9.6904
    11.6794  11.6805

          k =-0.4980 0.2151 0.2143 (  1544 PWs)   bands (ev):

    -0.1487  -0.1484   4.7259   4.7261   5.0117   5.0121   9.7443   9.7446
    12.1124  12.1126

          k =-0.4980 0.2151 0.3571 (  1544 PWs)   bands (ev):

     0.5771   0.5774   3.0845   3.0848   5.6004   5.6007   8.0353   8.0356
    13.0884  13.0887

          k =-0.4980 0.2151-0.5000 (  1556 PWs)   bands (ev):

     1.6584   1.6587   1.6588   1.6591   6.6471   6.6474   6.6475   6.6478
    14.0957  14.0960

          k =-0.4980 0.3586 0.0714 (  1558 PWs)   bands (ev):

     0.2205   0.2208   2.7555   2.7558   7.5400   7.5403   9.9668   9.9671
    10.4085  10.4088

          k =-0.4980 0.3586 0.2143 (  1544 PWs)   bands (ev):

     0.5829   0.5832   3.1100   3.1102   5.5673   5.5676   8.0219   8.0222
    12.9954  12.9956

          k =-0.4980 0.3586 0.3571 (  1542 PWs)   bands (ev):

     1.3051   1.3054   3.6939   3.6941   3.9451   3.9455   6.2974   6.2977
    15.8344  15.8347

          k =-0.4980 0.3586-0.5000 (  1556 PWs)   bands (ev):

     2.3800   2.3803   2.3804   2.3806   4.8968   4.8972   4.8973   4.8975
    16.9777  16.9782

          k =-0.4980-0.5020 0.0714 (  1556 PWs)   bands (ev):

     1.3132   1.3134   1.3136   1.3137   8.5827   8.5830   8.5832   8.5832
    11.4471  11.4473

          k =-0.4980-0.5020 0.2143 (  1556 PWs)   bands (ev):

     1.6729   1.6731   1.6733   1.6734   6.6225   6.6228   6.6229   6.6230
    14.0101  14.0105

          k =-0.4980-0.5020 0.3571 (  1552 PWs)   bands (ev):

     2.3886   2.3888   2.3890   2.3891   4.8857   4.8860   4.8861   4.8862
    16.8764  16.8765

          k =-0.4980-0.5020-0.5000 (  1568 PWs)   bands (ev):

     3.3489   3.3490   3.3491   3.3494   3.5814   3.5819   3.5820   3.5822
    19.3489  19.3495

     the Fermi energy is     7.9589 ev

!    total energy              =    -158.00617938 Ry
     Harris-Foulkes estimate   =    -158.00617955 Ry
     estimated scf accuracy    <       0.00000008 Ry

     total all-electron energy =     -1942.577307 Ry

     The total energy is the sum of the following terms:

     one-electron contribution =      12.71394321 Ry
     hartree contribution      =       0.02407233 Ry
     xc contribution           =     -10.37536485 Ry
     ewald contribution        =     -21.65945678 Ry
     one-center paw contrib.   =    -138.70945742 Ry
     smearing contrib. (-TS)   =       0.00008414 Ry

     convergence has been achieved in   6 iterations

     Forces acting on atoms (Ry/au):

     atom    1 type  1   force =     0.00000000    0.00000000    0.00000000
     atom    2 type  2   force =     0.00000000    0.00000000    0.00000000
     atom    3 type  3   force =     0.00000000    0.00000000    0.00000000
     atom    4 type  4   force =     0.00000000    0.00000000    0.00000000

     Total force =     0.000000     Total SCF correction =     0.000000


     entering subroutine stress ...

          total   stress  (Ry/bohr**3)                   (kbar)     P=   -0.09
  -0.00001556   0.00000000   0.00000000         -2.29      0.00      0.00
   0.00000000   0.00001207   0.00000000          0.00      1.78      0.00
   0.00000000   0.00000000   0.00000174          0.00      0.00      0.26


     Writing output data file template.save

     init_run     :      4.71s CPU      4.88s WALL (       1 calls)
     electrons    :     19.07s CPU     19.98s WALL (       1 calls)
     forces       :      0.70s CPU      0.70s WALL (       1 calls)
     stress       :      2.52s CPU      2.59s WALL (       1 calls)

     Called by init_run:
     wfcinit      :      2.73s CPU      2.85s WALL (       1 calls)
     potinit      :      1.06s CPU      1.11s WALL (       1 calls)

     Called by electrons:
     c_bands      :     16.02s CPU     16.78s WALL (       7 calls)
     sum_band     :      2.45s CPU      2.60s WALL (       7 calls)
     v_of_rho     :      0.10s CPU      0.11s WALL (       7 calls)
     newd         :      0.18s CPU      0.18s WALL (       7 calls)
     PAW_pot      :      0.57s CPU      0.62s WALL (       7 calls)
     mix_rho      :      0.02s CPU      0.01s WALL (       7 calls)

     Called by c_bands:
     init_us_2    :      0.30s CPU      0.36s WALL (    1088 calls)
     cegterg      :     15.59s CPU     16.34s WALL (     448 calls)

     Called by sum_band:
     sum_band:bec :      0.00s CPU      0.01s WALL (     448 calls)
     addusdens    :      0.18s CPU      0.19s WALL (       7 calls)

     Called by *egterg:
     h_psi        :     15.96s CPU     16.76s WALL (    1567 calls)
     s_psi        :      0.26s CPU      0.26s WALL (    1567 calls)
     g_psi        :      0.03s CPU      0.03s WALL (    1055 calls)
     cdiaghg      :      0.68s CPU      0.60s WALL (    1439 calls)

     Called by h_psi:
     h_psi:pot    :     15.95s CPU     16.72s WALL (    1567 calls)
     h_psi:calbec :      0.49s CPU      0.51s WALL (    1567 calls)
     vloc_psi     :     15.14s CPU     15.92s WALL (    1567 calls)
     add_vuspsi   :      0.30s CPU      0.29s WALL (    1567 calls)

     General routines
     calbec       :      0.82s CPU      0.81s WALL (    2335 calls)
     fft          :      0.27s CPU      0.30s WALL (     137 calls)
     ffts         :      0.01s CPU      0.01s WALL (      14 calls)
     fftw         :     16.52s CPU     17.28s WALL (   29370 calls)
     interpolate  :      0.03s CPU      0.02s WALL (      14 calls)
     davcio       :      0.00s CPU      0.01s WALL (      64 calls)

     Parallel routines
     fft_scatter  :      4.78s CPU      4.92s WALL (   29521 calls)

     PWSCF        :    28.45s CPU        29.80s WALL


   This run was terminated on:  13:43: 8   9Jun2017            

=------------------------------------------------------------------------------=
   JOB DONE.
=------------------------------------------------------------------------------=
