
     Program PWSCF v.6.0 (svn rev. 13079) starts on  9Jun2017 at 13:48: 2 

     This program is part of the open-source Quantum ESPRESSO suite
     for quantum simulation of materials; please cite
         "P. Giannozzi et al., J. Phys.:Condens. Matter 21 395502 (2009);
          URL http://www.quantum-espresso.org", 
     in publications or presentations arising from this work. More details at
     http://www.quantum-espresso.org/quote

     Parallel version (MPI), running on     4 processors
     R & G space division:  proc/nbgrp/npool/nimage =       4
     Waiting for input...
     Reading input from standard input
Warning: card &IONS ignored
Warning: card ION_DYNAMICS='BFGS', ignored
Warning: card / ignored
Warning: card &CELL ignored
Warning: card CELL_DYNAMICS='BFGS', ignored
Warning: card PRESS = 0.0, ignored
Warning: card CELL_FACTOR = 2.0, ignored
Warning: card / ignored

     Current dimensions of program PWSCF are:
     Max number of different atomic species (ntypx) = 10
     Max number of k-points (npk) =  40000
     Max angular momentum in pseudopotentials (lmaxx) =  3
               file Al.pbe-nl-kjpaw_psl.1.0.0.UPF: wavefunction(s)  3S 3P renormalized
               file Al.pbe-nl-kjpaw_psl.1.0.0.UPF: wavefunction(s)  3S 3P renormalized
               file Al.pbe-nl-kjpaw_psl.1.0.0.UPF: wavefunction(s)  3S 3P renormalized
               file Al.pbe-nl-kjpaw_psl.1.0.0.UPF: wavefunction(s)  3S 3P renormalized

     Subspace diagonalization in iterative solution of the eigenvalue problem:
     a serial algorithm will be used


     Parallelization info
     --------------------
     sticks:   dense  smooth     PW     G-vecs:    dense   smooth      PW
     Min         233     162     50                 5282     3096     530
     Max         235     164     51                 5283     3097     531
     Sum         937     653    201                21131    12385    2121



     bravais-lattice index     =            0
     lattice parameter (alat)  =       7.6205  a.u.
     unit-cell volume          =     442.5300 (a.u.)^3
     number of atoms/cell      =            4
     number of atomic types    =            4
     number of electrons       =        12.00
     number of Kohn-Sham states=           10
     kinetic-energy cutoff     =      35.0000  Ry
     charge density cutoff     =     200.0000  Ry
     convergence threshold     =      1.0E-06
     mixing beta               =       0.3000
     number of iterations used =           10  TF        mixing
     Exchange-correlation      =  SLA  PW   PBX  PBC ( 1  4  3  4 0 0)

     celldm(1)=   7.620455  celldm(2)=   0.000000  celldm(3)=   0.000000
     celldm(4)=   0.000000  celldm(5)=   0.000000  celldm(6)=   0.000000

     crystal axes: (cart. coord. in units of alat)
               a(1) = (   1.000000   0.004000   0.000000 )  
               a(2) = (   0.004000   1.000000   0.000000 )  
               a(3) = (   0.000000   0.000000   1.000016 )  

     reciprocal axes: (cart. coord. in units 2 pi/alat)
               b(1) = (  1.000016 -0.004000  0.000000 )  
               b(2) = ( -0.004000  1.000016  0.000000 )  
               b(3) = (  0.000000  0.000000  0.999984 )  


     PseudoPot. # 1 for Al read from file:
     /home/ben/espresso/pp/Al.pbe-nl-kjpaw_psl.1.0.0.UPF
     MD5 check sum: 339dbea23cf3ab9a065ad45c0f9085d7
     Pseudo is Projector augmented-wave + core cor, Zval =  3.0
     Generated using "atomic" code by A. Dal Corso  v.5.1
     Shape of augmentation charge: PSQ
     Using radial grid of 1135 points,  4 beta functions with: 
                l(1) =   0
                l(2) =   0
                l(3) =   1
                l(4) =   1
     Q(r) pseudized with 0 coefficients 


     PseudoPot. # 2 for Al read from file:
     /home/ben/espresso/pp/Al.pbe-nl-kjpaw_psl.1.0.0.UPF
     MD5 check sum: 339dbea23cf3ab9a065ad45c0f9085d7
     Pseudo is Projector augmented-wave + core cor, Zval =  3.0
     Generated using "atomic" code by A. Dal Corso  v.5.1
     Shape of augmentation charge: PSQ
     Using radial grid of 1135 points,  4 beta functions with: 
                l(1) =   0
                l(2) =   0
                l(3) =   1
                l(4) =   1
     Q(r) pseudized with 0 coefficients 


     PseudoPot. # 3 for Al read from file:
     /home/ben/espresso/pp/Al.pbe-nl-kjpaw_psl.1.0.0.UPF
     MD5 check sum: 339dbea23cf3ab9a065ad45c0f9085d7
     Pseudo is Projector augmented-wave + core cor, Zval =  3.0
     Generated using "atomic" code by A. Dal Corso  v.5.1
     Shape of augmentation charge: PSQ
     Using radial grid of 1135 points,  4 beta functions with: 
                l(1) =   0
                l(2) =   0
                l(3) =   1
                l(4) =   1
     Q(r) pseudized with 0 coefficients 


     PseudoPot. # 4 for Al read from file:
     /home/ben/espresso/pp/Al.pbe-nl-kjpaw_psl.1.0.0.UPF
     MD5 check sum: 339dbea23cf3ab9a065ad45c0f9085d7
     Pseudo is Projector augmented-wave + core cor, Zval =  3.0
     Generated using "atomic" code by A. Dal Corso  v.5.1
     Shape of augmentation charge: PSQ
     Using radial grid of 1135 points,  4 beta functions with: 
                l(1) =   0
                l(2) =   0
                l(3) =   1
                l(4) =   1
     Q(r) pseudized with 0 coefficients 


     atomic species   valence    mass     pseudopotential
        Al1            3.00    26.98200     Al( 1.00)
        Al2            3.00    26.98200     Al( 1.00)
        Al3            3.00    26.98200     Al( 1.00)
        Al4            3.00    26.98200     Al( 1.00)

      4 Sym. Ops., with inversion, found



   Cartesian axes

     site n.     atom                  positions (alat units)
         1           Al1 tau(   1) = (   0.0000000   0.0000000   0.0000000  )
         2           Al2 tau(   2) = (   0.5020000   0.5020000   0.0000000  )
         3           Al3 tau(   3) = (   0.5000000   0.0020000   0.5000080  )
         4           Al4 tau(   4) = (   0.0020000   0.5000000   0.5000080  )

     number of k points=   100  Marzari-Vanderbilt smearing, width (Ry)=  0.0200

     Number of k-points >= 100: set verbosity='high' to print them.

     Dense  grid:    21131 G-vectors     FFT dimensions: (  36,  36,  36)

     Smooth grid:    12385 G-vectors     FFT dimensions: (  30,  30,  30)

     Estimated max dynamical RAM per process >      10.13Mb

     Estimated total allocated dynamical RAM >      40.51Mb

     Initial potential from superposition of free atoms

     starting charge   11.99084, renormalised to   12.00000
     Starting wfc are   16 randomized atomic wfcs
     Checking if some PAW data can be deallocated... 

     total cpu time spent up to now is        9.1 secs

     per-process dynamical memory:    19.6 Mb

     Self-consistent Calculation

     iteration #  1     ecut=    35.00 Ry     beta=0.30
     Davidson diagonalization with overlap
     ethr =  1.00E-02,  avg # of iterations =  3.3

     Threshold (ethr) on eigenvalues was too large:
     Diagonalizing with lowered threshold

     Davidson diagonalization with overlap
     ethr =  1.99E-04,  avg # of iterations =  3.0

     total cpu time spent up to now is       15.4 secs

     total energy              =    -158.01023547 Ry
     Harris-Foulkes estimate   =    -158.01234336 Ry
     estimated scf accuracy    <       0.02305757 Ry

     iteration #  2     ecut=    35.00 Ry     beta=0.30
     Davidson diagonalization with overlap
     ethr =  1.92E-04,  avg # of iterations =  1.1

     total cpu time spent up to now is       17.7 secs

     total energy              =    -158.00587950 Ry
     Harris-Foulkes estimate   =    -158.01035228 Ry
     estimated scf accuracy    <       0.01435734 Ry

     iteration #  3     ecut=    35.00 Ry     beta=0.30
     Davidson diagonalization with overlap
     ethr =  1.20E-04,  avg # of iterations =  1.2

     total cpu time spent up to now is       23.2 secs

     total energy              =    -158.00615470 Ry
     Harris-Foulkes estimate   =    -158.00614322 Ry
     estimated scf accuracy    <       0.00003645 Ry

     iteration #  4     ecut=    35.00 Ry     beta=0.30
     Davidson diagonalization with overlap
     ethr =  3.04E-07,  avg # of iterations =  5.1

     total cpu time spent up to now is       34.2 secs

     total energy              =    -158.00623042 Ry
     Harris-Foulkes estimate   =    -158.00621397 Ry
     estimated scf accuracy    <       0.00001711 Ry

     iteration #  5     ecut=    35.00 Ry     beta=0.30
     Davidson diagonalization with overlap
     ethr =  1.43E-07,  avg # of iterations =  1.1

     total cpu time spent up to now is       36.5 secs

     total energy              =    -158.00622834 Ry
     Harris-Foulkes estimate   =    -158.00623138 Ry
     estimated scf accuracy    <       0.00000658 Ry

     iteration #  6     ecut=    35.00 Ry     beta=0.30
     Davidson diagonalization with overlap
     ethr =  5.49E-08,  avg # of iterations =  2.0

     total cpu time spent up to now is       39.0 secs

     End of self-consistent calculation

     Number of k-points >= 100: set verbosity='high' to print the bands.

     the Fermi energy is     7.9558 ev

!    total energy              =    -158.00622889 Ry
     Harris-Foulkes estimate   =    -158.00622907 Ry
     estimated scf accuracy    <       0.00000007 Ry

     total all-electron energy =     -1942.577357 Ry

     The total energy is the sum of the following terms:

     one-electron contribution =      12.71367937 Ry
     hartree contribution      =       0.02411991 Ry
     xc contribution           =     -10.37541406 Ry
     ewald contribution        =     -21.65932940 Ry
     one-center paw contrib.   =    -138.70949001 Ry
     smearing contrib. (-TS)   =       0.00020532 Ry

     convergence has been achieved in   6 iterations

     Forces acting on atoms (Ry/au):

     atom    1 type  1   force =     0.00000000    0.00000000    0.00000000
     atom    2 type  2   force =     0.00000000    0.00000000    0.00000000
     atom    3 type  3   force =     0.00000000    0.00000000    0.00000000
     atom    4 type  4   force =     0.00000000    0.00000000    0.00000000

     Total force =     0.000000     Total SCF correction =     0.000000


     entering subroutine stress ...

          total   stress  (Ry/bohr**3)                   (kbar)     P=   -0.06
   0.00000029   0.00001277   0.00000000          0.04      1.88      0.00
   0.00001277   0.00000028   0.00000000          1.88      0.04      0.00
   0.00000000   0.00000000  -0.00000171          0.00      0.00     -0.25


     Writing output data file template.save

     init_run     :      5.37s CPU      5.58s WALL (       1 calls)
     electrons    :     28.59s CPU     29.94s WALL (       1 calls)
     forces       :      0.84s CPU      0.87s WALL (       1 calls)
     stress       :      2.10s CPU      2.13s WALL (       1 calls)

     Called by init_run:
     wfcinit      :      1.48s CPU      1.55s WALL (       1 calls)
     potinit      :      1.06s CPU      1.08s WALL (       1 calls)

     Called by electrons:
     c_bands      :     23.83s CPU     24.98s WALL (       7 calls)
     sum_band     :      3.90s CPU      4.09s WALL (       7 calls)
     v_of_rho     :      0.13s CPU      0.14s WALL (       7 calls)
     newd         :      0.22s CPU      0.22s WALL (       7 calls)
     PAW_pot      :      0.80s CPU      0.83s WALL (       7 calls)
     mix_rho      :      0.02s CPU      0.01s WALL (       7 calls)

     Called by c_bands:
     init_us_2    :      0.48s CPU      0.51s WALL (    1700 calls)
     cegterg      :     23.28s CPU     24.33s WALL (     700 calls)

     Called by sum_band:
     sum_band:bec :      0.02s CPU      0.01s WALL (     700 calls)
     addusdens    :      0.20s CPU      0.22s WALL (       7 calls)

     Called by *egterg:
     h_psi        :     21.58s CPU     22.57s WALL (    2473 calls)
     s_psi        :      0.40s CPU      0.40s WALL (    2473 calls)
     g_psi        :      0.07s CPU      0.06s WALL (    1673 calls)
     cdiaghg      :      0.86s CPU      0.96s WALL (    2273 calls)

     Called by h_psi:
     h_psi:pot    :     21.54s CPU     22.51s WALL (    2473 calls)
     h_psi:calbec :      0.54s CPU      0.62s WALL (    2473 calls)
     vloc_psi     :     20.54s CPU     21.43s WALL (    2473 calls)
     add_vuspsi   :      0.45s CPU      0.45s WALL (    2473 calls)

     General routines
     calbec       :      0.94s CPU      0.99s WALL (    3673 calls)
     fft          :      0.38s CPU      0.37s WALL (     137 calls)
     ffts         :      0.01s CPU      0.01s WALL (      14 calls)
     fftw         :     22.73s CPU     23.72s WALL (   45814 calls)
     interpolate  :      0.02s CPU      0.03s WALL (      14 calls)
     davcio       :      0.00s CPU      0.00s WALL (     100 calls)

     Parallel routines
     fft_scatter  :      5.01s CPU      5.38s WALL (   45965 calls)

     PWSCF        :    40.43s CPU        42.29s WALL


   This run was terminated on:  13:48:44   9Jun2017            

=------------------------------------------------------------------------------=
   JOB DONE.
=------------------------------------------------------------------------------=
