
     Program PWSCF v.6.0 (svn rev. 13079) starts on  9Jun2017 at 13:48:44 

     This program is part of the open-source Quantum ESPRESSO suite
     for quantum simulation of materials; please cite
         "P. Giannozzi et al., J. Phys.:Condens. Matter 21 395502 (2009);
          URL http://www.quantum-espresso.org", 
     in publications or presentations arising from this work. More details at
     http://www.quantum-espresso.org/quote

     Parallel version (MPI), running on     4 processors
     R & G space division:  proc/nbgrp/npool/nimage =       4
     Waiting for input...
     Reading input from standard input
Warning: card &IONS ignored
Warning: card ION_DYNAMICS='BFGS', ignored
Warning: card / ignored
Warning: card &CELL ignored
Warning: card CELL_DYNAMICS='BFGS', ignored
Warning: card PRESS = 0.0, ignored
Warning: card CELL_FACTOR = 2.0, ignored
Warning: card / ignored

     Current dimensions of program PWSCF are:
     Max number of different atomic species (ntypx) = 10
     Max number of k-points (npk) =  40000
     Max angular momentum in pseudopotentials (lmaxx) =  3
               file Al.pbe-nl-kjpaw_psl.1.0.0.UPF: wavefunction(s)  3S 3P renormalized
               file Al.pbe-nl-kjpaw_psl.1.0.0.UPF: wavefunction(s)  3S 3P renormalized
               file Al.pbe-nl-kjpaw_psl.1.0.0.UPF: wavefunction(s)  3S 3P renormalized
               file Al.pbe-nl-kjpaw_psl.1.0.0.UPF: wavefunction(s)  3S 3P renormalized

     Subspace diagonalization in iterative solution of the eigenvalue problem:
     a serial algorithm will be used


     Parallelization info
     --------------------
     sticks:   dense  smooth     PW     G-vecs:    dense   smooth      PW
     Min         233     163     50                 5284     3097     530
     Max         234     164     51                 5285     3098     531
     Sum         933     653    201                21139    12389    2121



     bravais-lattice index     =            0
     lattice parameter (alat)  =       7.6205  a.u.
     unit-cell volume          =     442.5300 (a.u.)^3
     number of atoms/cell      =            4
     number of atomic types    =            4
     number of electrons       =        12.00
     number of Kohn-Sham states=           10
     kinetic-energy cutoff     =      35.0000  Ry
     charge density cutoff     =     200.0000  Ry
     convergence threshold     =      1.0E-06
     mixing beta               =       0.3000
     number of iterations used =           10  TF        mixing
     Exchange-correlation      =  SLA  PW   PBX  PBC ( 1  4  3  4 0 0)

     celldm(1)=   7.620455  celldm(2)=   0.000000  celldm(3)=   0.000000
     celldm(4)=   0.000000  celldm(5)=   0.000000  celldm(6)=   0.000000

     crystal axes: (cart. coord. in units of alat)
               a(1) = (   1.000000   0.006000   0.000000 )  
               a(2) = (   0.006000   1.000000   0.000000 )  
               a(3) = (   0.000000   0.000000   1.000036 )  

     reciprocal axes: (cart. coord. in units 2 pi/alat)
               b(1) = (  1.000036 -0.006000  0.000000 )  
               b(2) = ( -0.006000  1.000036  0.000000 )  
               b(3) = (  0.000000  0.000000  0.999964 )  


     PseudoPot. # 1 for Al read from file:
     /home/ben/espresso/pp/Al.pbe-nl-kjpaw_psl.1.0.0.UPF
     MD5 check sum: 339dbea23cf3ab9a065ad45c0f9085d7
     Pseudo is Projector augmented-wave + core cor, Zval =  3.0
     Generated using "atomic" code by A. Dal Corso  v.5.1
     Shape of augmentation charge: PSQ
     Using radial grid of 1135 points,  4 beta functions with: 
                l(1) =   0
                l(2) =   0
                l(3) =   1
                l(4) =   1
     Q(r) pseudized with 0 coefficients 


     PseudoPot. # 2 for Al read from file:
     /home/ben/espresso/pp/Al.pbe-nl-kjpaw_psl.1.0.0.UPF
     MD5 check sum: 339dbea23cf3ab9a065ad45c0f9085d7
     Pseudo is Projector augmented-wave + core cor, Zval =  3.0
     Generated using "atomic" code by A. Dal Corso  v.5.1
     Shape of augmentation charge: PSQ
     Using radial grid of 1135 points,  4 beta functions with: 
                l(1) =   0
                l(2) =   0
                l(3) =   1
                l(4) =   1
     Q(r) pseudized with 0 coefficients 


     PseudoPot. # 3 for Al read from file:
     /home/ben/espresso/pp/Al.pbe-nl-kjpaw_psl.1.0.0.UPF
     MD5 check sum: 339dbea23cf3ab9a065ad45c0f9085d7
     Pseudo is Projector augmented-wave + core cor, Zval =  3.0
     Generated using "atomic" code by A. Dal Corso  v.5.1
     Shape of augmentation charge: PSQ
     Using radial grid of 1135 points,  4 beta functions with: 
                l(1) =   0
                l(2) =   0
                l(3) =   1
                l(4) =   1
     Q(r) pseudized with 0 coefficients 


     PseudoPot. # 4 for Al read from file:
     /home/ben/espresso/pp/Al.pbe-nl-kjpaw_psl.1.0.0.UPF
     MD5 check sum: 339dbea23cf3ab9a065ad45c0f9085d7
     Pseudo is Projector augmented-wave + core cor, Zval =  3.0
     Generated using "atomic" code by A. Dal Corso  v.5.1
     Shape of augmentation charge: PSQ
     Using radial grid of 1135 points,  4 beta functions with: 
                l(1) =   0
                l(2) =   0
                l(3) =   1
                l(4) =   1
     Q(r) pseudized with 0 coefficients 


     atomic species   valence    mass     pseudopotential
        Al1            3.00    26.98200     Al( 1.00)
        Al2            3.00    26.98200     Al( 1.00)
        Al3            3.00    26.98200     Al( 1.00)
        Al4            3.00    26.98200     Al( 1.00)

      4 Sym. Ops., with inversion, found



   Cartesian axes

     site n.     atom                  positions (alat units)
         1           Al1 tau(   1) = (   0.0000000   0.0000000   0.0000000  )
         2           Al2 tau(   2) = (   0.5030000   0.5030000   0.0000000  )
         3           Al3 tau(   3) = (   0.5000000   0.0030000   0.5000180  )
         4           Al4 tau(   4) = (   0.0030000   0.5000000   0.5000180  )

     number of k points=   100  Marzari-Vanderbilt smearing, width (Ry)=  0.0200

     Number of k-points >= 100: set verbosity='high' to print them.

     Dense  grid:    21139 G-vectors     FFT dimensions: (  36,  36,  36)

     Smooth grid:    12389 G-vectors     FFT dimensions: (  30,  30,  30)

     Estimated max dynamical RAM per process >      10.13Mb

     Estimated total allocated dynamical RAM >      40.51Mb

     Initial potential from superposition of free atoms

     starting charge   11.99084, renormalised to   12.00000
     Starting wfc are   16 randomized atomic wfcs
     Checking if some PAW data can be deallocated... 

     total cpu time spent up to now is        5.6 secs

     per-process dynamical memory:    19.6 Mb

     Self-consistent Calculation

     iteration #  1     ecut=    35.00 Ry     beta=0.30
     Davidson diagonalization with overlap
     ethr =  1.00E-02,  avg # of iterations =  3.3

     Threshold (ethr) on eigenvalues was too large:
     Diagonalizing with lowered threshold

     Davidson diagonalization with overlap
     ethr =  1.99E-04,  avg # of iterations =  3.2

     total cpu time spent up to now is       19.8 secs

     total energy              =    -158.01025383 Ry
     Harris-Foulkes estimate   =    -158.01236102 Ry
     estimated scf accuracy    <       0.02305274 Ry

     iteration #  2     ecut=    35.00 Ry     beta=0.30
     Davidson diagonalization with overlap
     ethr =  1.92E-04,  avg # of iterations =  1.1

     total cpu time spent up to now is       22.1 secs

     total energy              =    -158.00590533 Ry
     Harris-Foulkes estimate   =    -158.01037460 Ry
     estimated scf accuracy    <       0.01435316 Ry

     iteration #  3     ecut=    35.00 Ry     beta=0.30
     Davidson diagonalization with overlap
     ethr =  1.20E-04,  avg # of iterations =  1.1

     total cpu time spent up to now is       24.3 secs

     total energy              =    -158.00618070 Ry
     Harris-Foulkes estimate   =    -158.00616960 Ry
     estimated scf accuracy    <       0.00003644 Ry

     iteration #  4     ecut=    35.00 Ry     beta=0.30
     Davidson diagonalization with overlap
     ethr =  3.04E-07,  avg # of iterations =  4.8

     total cpu time spent up to now is       28.2 secs

     total energy              =    -158.00625763 Ry
     Harris-Foulkes estimate   =    -158.00624109 Ry
     estimated scf accuracy    <       0.00001738 Ry

     iteration #  5     ecut=    35.00 Ry     beta=0.30
     Davidson diagonalization with overlap
     ethr =  1.45E-07,  avg # of iterations =  1.1

     total cpu time spent up to now is       33.5 secs

     total energy              =    -158.00625553 Ry
     Harris-Foulkes estimate   =    -158.00625857 Ry
     estimated scf accuracy    <       0.00000662 Ry

     iteration #  6     ecut=    35.00 Ry     beta=0.30
     Davidson diagonalization with overlap
     ethr =  5.52E-08,  avg # of iterations =  2.0

     total cpu time spent up to now is       42.4 secs

     End of self-consistent calculation

     Number of k-points >= 100: set verbosity='high' to print the bands.

     the Fermi energy is     7.9534 ev

!    total energy              =    -158.00625614 Ry
     Harris-Foulkes estimate   =    -158.00625632 Ry
     estimated scf accuracy    <       0.00000008 Ry

     total all-electron energy =     -1942.577384 Ry

     The total energy is the sum of the following terms:

     one-electron contribution =      12.71356775 Ry
     hartree contribution      =       0.02418351 Ry
     xc contribution           =     -10.37549759 Ry
     ewald contribution        =     -21.65915015 Ry
     one-center paw contrib.   =    -138.70958502 Ry
     smearing contrib. (-TS)   =       0.00022536 Ry

     convergence has been achieved in   6 iterations

     Forces acting on atoms (Ry/au):

     atom    1 type  1   force =     0.00000000    0.00000000    0.00000000
     atom    2 type  2   force =     0.00000000    0.00000000    0.00000000
     atom    3 type  3   force =     0.00000000    0.00000000    0.00000000
     atom    4 type  4   force =     0.00000000    0.00000000    0.00000000

     Total force =     0.000000     Total SCF correction =     0.000000


     entering subroutine stress ...

          total   stress  (Ry/bohr**3)                   (kbar)     P=    0.11
   0.00000221   0.00001754   0.00000000          0.33      2.58      0.00
   0.00001754   0.00000221   0.00000000          2.58      0.32      0.00
   0.00000000   0.00000000  -0.00000211          0.00      0.00     -0.31


     Writing output data file template.save

     init_run     :      4.28s CPU      4.50s WALL (       1 calls)
     electrons    :     35.04s CPU     36.85s WALL (       1 calls)
     forces       :      1.48s CPU      1.52s WALL (       1 calls)
     stress       :      1.91s CPU      1.95s WALL (       1 calls)

     Called by init_run:
     wfcinit      :      3.11s CPU      3.32s WALL (       1 calls)
     potinit      :      0.33s CPU      0.34s WALL (       1 calls)

     Called by electrons:
     c_bands      :     28.20s CPU     29.75s WALL (       7 calls)
     sum_band     :      5.79s CPU      6.04s WALL (       7 calls)
     v_of_rho     :      0.13s CPU      0.13s WALL (       7 calls)
     newd         :      0.21s CPU      0.22s WALL (       7 calls)
     PAW_pot      :      0.76s CPU      0.78s WALL (       7 calls)
     mix_rho      :      0.02s CPU      0.02s WALL (       7 calls)

     Called by c_bands:
     init_us_2    :      0.77s CPU      0.78s WALL (    1700 calls)
     cegterg      :     27.38s CPU     28.90s WALL (     700 calls)

     Called by sum_band:
     sum_band:bec :      0.03s CPU      0.02s WALL (     700 calls)
     addusdens    :      0.26s CPU      0.27s WALL (       7 calls)

     Called by *egterg:
     h_psi        :     26.77s CPU     28.29s WALL (    2453 calls)
     s_psi        :      0.53s CPU      0.54s WALL (    2453 calls)
     g_psi        :      0.06s CPU      0.07s WALL (    1653 calls)
     cdiaghg      :      0.95s CPU      1.00s WALL (    2253 calls)

     Called by h_psi:
     h_psi:pot    :     26.71s CPU     28.22s WALL (    2453 calls)
     h_psi:calbec :      0.76s CPU      0.79s WALL (    2453 calls)
     vloc_psi     :     25.39s CPU     26.84s WALL (    2453 calls)
     add_vuspsi   :      0.55s CPU      0.57s WALL (    2453 calls)

     General routines
     calbec       :      1.28s CPU      1.30s WALL (    3653 calls)
     fft          :      0.18s CPU      0.16s WALL (     137 calls)
     ffts         :      0.01s CPU      0.01s WALL (      14 calls)
     fftw         :     28.86s CPU     30.48s WALL (   45848 calls)
     interpolate  :      0.02s CPU      0.03s WALL (      14 calls)
     davcio       :      0.01s CPU      0.00s WALL (     100 calls)

     Parallel routines
     fft_scatter  :      6.47s CPU      6.80s WALL (   45999 calls)

     PWSCF        :    43.95s CPU        46.22s WALL


   This run was terminated on:  13:49:31   9Jun2017            

=------------------------------------------------------------------------------=
   JOB DONE.
=------------------------------------------------------------------------------=
