
     Program PWSCF v.6.0 (svn rev. 13079) starts on  9Jun2017 at 13:47:20 

     This program is part of the open-source Quantum ESPRESSO suite
     for quantum simulation of materials; please cite
         "P. Giannozzi et al., J. Phys.:Condens. Matter 21 395502 (2009);
          URL http://www.quantum-espresso.org", 
     in publications or presentations arising from this work. More details at
     http://www.quantum-espresso.org/quote

     Parallel version (MPI), running on     4 processors
     R & G space division:  proc/nbgrp/npool/nimage =       4
     Waiting for input...
     Reading input from standard input
Warning: card &IONS ignored
Warning: card ION_DYNAMICS='BFGS', ignored
Warning: card / ignored
Warning: card &CELL ignored
Warning: card CELL_DYNAMICS='BFGS', ignored
Warning: card PRESS = 0.0, ignored
Warning: card CELL_FACTOR = 2.0, ignored
Warning: card / ignored

     Current dimensions of program PWSCF are:
     Max number of different atomic species (ntypx) = 10
     Max number of k-points (npk) =  40000
     Max angular momentum in pseudopotentials (lmaxx) =  3
               file Al.pbe-nl-kjpaw_psl.1.0.0.UPF: wavefunction(s)  3S 3P renormalized
               file Al.pbe-nl-kjpaw_psl.1.0.0.UPF: wavefunction(s)  3S 3P renormalized
               file Al.pbe-nl-kjpaw_psl.1.0.0.UPF: wavefunction(s)  3S 3P renormalized
               file Al.pbe-nl-kjpaw_psl.1.0.0.UPF: wavefunction(s)  3S 3P renormalized

     Subspace diagonalization in iterative solution of the eigenvalue problem:
     a serial algorithm will be used


     Parallelization info
     --------------------
     sticks:   dense  smooth     PW     G-vecs:    dense   smooth      PW
     Min         233     163     49                 5296     3099     527
     Max         234     165     50                 5297     3100     528
     Sum         933     657    197                21187    12397    2109



     bravais-lattice index     =            0
     lattice parameter (alat)  =       7.6205  a.u.
     unit-cell volume          =     442.5300 (a.u.)^3
     number of atoms/cell      =            4
     number of atomic types    =            4
     number of electrons       =        12.00
     number of Kohn-Sham states=           10
     kinetic-energy cutoff     =      35.0000  Ry
     charge density cutoff     =     200.0000  Ry
     convergence threshold     =      1.0E-06
     mixing beta               =       0.3000
     number of iterations used =           10  TF        mixing
     Exchange-correlation      =  SLA  PW   PBX  PBC ( 1  4  3  4 0 0)

     celldm(1)=   7.620455  celldm(2)=   0.000000  celldm(3)=   0.000000
     celldm(4)=   0.000000  celldm(5)=   0.000000  celldm(6)=   0.000000

     crystal axes: (cart. coord. in units of alat)
               a(1) = (   1.000000   0.002000   0.000000 )  
               a(2) = (   0.002000   1.000000   0.000000 )  
               a(3) = (   0.000000   0.000000   1.000004 )  

     reciprocal axes: (cart. coord. in units 2 pi/alat)
               b(1) = (  1.000004 -0.002000  0.000000 )  
               b(2) = ( -0.002000  1.000004  0.000000 )  
               b(3) = (  0.000000  0.000000  0.999996 )  


     PseudoPot. # 1 for Al read from file:
     /home/ben/espresso/pp/Al.pbe-nl-kjpaw_psl.1.0.0.UPF
     MD5 check sum: 339dbea23cf3ab9a065ad45c0f9085d7
     Pseudo is Projector augmented-wave + core cor, Zval =  3.0
     Generated using "atomic" code by A. Dal Corso  v.5.1
     Shape of augmentation charge: PSQ
     Using radial grid of 1135 points,  4 beta functions with: 
                l(1) =   0
                l(2) =   0
                l(3) =   1
                l(4) =   1
     Q(r) pseudized with 0 coefficients 


     PseudoPot. # 2 for Al read from file:
     /home/ben/espresso/pp/Al.pbe-nl-kjpaw_psl.1.0.0.UPF
     MD5 check sum: 339dbea23cf3ab9a065ad45c0f9085d7
     Pseudo is Projector augmented-wave + core cor, Zval =  3.0
     Generated using "atomic" code by A. Dal Corso  v.5.1
     Shape of augmentation charge: PSQ
     Using radial grid of 1135 points,  4 beta functions with: 
                l(1) =   0
                l(2) =   0
                l(3) =   1
                l(4) =   1
     Q(r) pseudized with 0 coefficients 


     PseudoPot. # 3 for Al read from file:
     /home/ben/espresso/pp/Al.pbe-nl-kjpaw_psl.1.0.0.UPF
     MD5 check sum: 339dbea23cf3ab9a065ad45c0f9085d7
     Pseudo is Projector augmented-wave + core cor, Zval =  3.0
     Generated using "atomic" code by A. Dal Corso  v.5.1
     Shape of augmentation charge: PSQ
     Using radial grid of 1135 points,  4 beta functions with: 
                l(1) =   0
                l(2) =   0
                l(3) =   1
                l(4) =   1
     Q(r) pseudized with 0 coefficients 


     PseudoPot. # 4 for Al read from file:
     /home/ben/espresso/pp/Al.pbe-nl-kjpaw_psl.1.0.0.UPF
     MD5 check sum: 339dbea23cf3ab9a065ad45c0f9085d7
     Pseudo is Projector augmented-wave + core cor, Zval =  3.0
     Generated using "atomic" code by A. Dal Corso  v.5.1
     Shape of augmentation charge: PSQ
     Using radial grid of 1135 points,  4 beta functions with: 
                l(1) =   0
                l(2) =   0
                l(3) =   1
                l(4) =   1
     Q(r) pseudized with 0 coefficients 


     atomic species   valence    mass     pseudopotential
        Al1            3.00    26.98200     Al( 1.00)
        Al2            3.00    26.98200     Al( 1.00)
        Al3            3.00    26.98200     Al( 1.00)
        Al4            3.00    26.98200     Al( 1.00)

      4 Sym. Ops., with inversion, found



   Cartesian axes

     site n.     atom                  positions (alat units)
         1           Al1 tau(   1) = (   0.0000000   0.0000000   0.0000000  )
         2           Al2 tau(   2) = (   0.5010000   0.5010000   0.0000000  )
         3           Al3 tau(   3) = (   0.5000000   0.0010000   0.5000020  )
         4           Al4 tau(   4) = (   0.0010000   0.5000000   0.5000020  )

     number of k points=   100  Marzari-Vanderbilt smearing, width (Ry)=  0.0200

     Number of k-points >= 100: set verbosity='high' to print them.

     Dense  grid:    21187 G-vectors     FFT dimensions: (  36,  36,  36)

     Smooth grid:    12397 G-vectors     FFT dimensions: (  30,  30,  30)

     Estimated max dynamical RAM per process >      10.13Mb

     Estimated total allocated dynamical RAM >      40.54Mb

     Initial potential from superposition of free atoms

     starting charge   11.99084, renormalised to   12.00000
     Starting wfc are   16 randomized atomic wfcs
     Checking if some PAW data can be deallocated... 

     total cpu time spent up to now is        3.7 secs

     per-process dynamical memory:    19.6 Mb

     Self-consistent Calculation

     iteration #  1     ecut=    35.00 Ry     beta=0.30
     Davidson diagonalization with overlap
     ethr =  1.00E-02,  avg # of iterations =  3.3

     Threshold (ethr) on eigenvalues was too large:
     Diagonalizing with lowered threshold

     Davidson diagonalization with overlap
     ethr =  1.99E-04,  avg # of iterations =  3.0

     total cpu time spent up to now is       13.5 secs

     total energy              =    -158.01022397 Ry
     Harris-Foulkes estimate   =    -158.01233227 Ry
     estimated scf accuracy    <       0.02306288 Ry

     iteration #  2     ecut=    35.00 Ry     beta=0.30
     Davidson diagonalization with overlap
     ethr =  1.92E-04,  avg # of iterations =  1.0

     total cpu time spent up to now is       21.6 secs

     total energy              =    -158.00586041 Ry
     Harris-Foulkes estimate   =    -158.01033817 Ry
     estimated scf accuracy    <       0.01436380 Ry

     iteration #  3     ecut=    35.00 Ry     beta=0.30
     Davidson diagonalization with overlap
     ethr =  1.20E-04,  avg # of iterations =  1.1

     total cpu time spent up to now is       24.7 secs

     total energy              =    -158.00613715 Ry
     Harris-Foulkes estimate   =    -158.00612480 Ry
     estimated scf accuracy    <       0.00003650 Ry

     iteration #  4     ecut=    35.00 Ry     beta=0.30
     Davidson diagonalization with overlap
     ethr =  3.04E-07,  avg # of iterations =  5.0

     total cpu time spent up to now is       28.7 secs

     total energy              =    -158.00621283 Ry
     Harris-Foulkes estimate   =    -158.00619670 Ry
     estimated scf accuracy    <       0.00001676 Ry

     iteration #  5     ecut=    35.00 Ry     beta=0.30
     Davidson diagonalization with overlap
     ethr =  1.40E-07,  avg # of iterations =  1.1

     total cpu time spent up to now is       30.9 secs

     total energy              =    -158.00621088 Ry
     Harris-Foulkes estimate   =    -158.00621377 Ry
     estimated scf accuracy    <       0.00000621 Ry

     iteration #  6     ecut=    35.00 Ry     beta=0.30
     Davidson diagonalization with overlap
     ethr =  5.17E-08,  avg # of iterations =  2.0

     total cpu time spent up to now is       33.5 secs

     End of self-consistent calculation

     Number of k-points >= 100: set verbosity='high' to print the bands.

     the Fermi energy is     7.9574 ev

!    total energy              =    -158.00621143 Ry
     Harris-Foulkes estimate   =    -158.00621161 Ry
     estimated scf accuracy    <       0.00000007 Ry

     total all-electron energy =     -1942.577339 Ry

     The total energy is the sum of the following terms:

     one-electron contribution =      12.71375836 Ry
     hartree contribution      =       0.02408108 Ry
     xc contribution           =     -10.37536180 Ry
     ewald contribution        =     -21.65943694 Ry
     one-center paw contrib.   =    -138.70944182 Ry
     smearing contrib. (-TS)   =       0.00018969 Ry

     convergence has been achieved in   6 iterations

     Forces acting on atoms (Ry/au):

     atom    1 type  1   force =     0.00000000    0.00000000    0.00000000
     atom    2 type  2   force =     0.00000000    0.00000000    0.00000000
     atom    3 type  3   force =     0.00000000    0.00000000    0.00000000
     atom    4 type  4   force =     0.00000000    0.00000000    0.00000000

     Total force =     0.000000     Total SCF correction =     0.000000


     entering subroutine stress ...

          total   stress  (Ry/bohr**3)                   (kbar)     P=   -0.13
  -0.00000074   0.00000673   0.00000000         -0.11      0.99      0.00
   0.00000673  -0.00000074   0.00000000          0.99     -0.11      0.00
   0.00000000   0.00000000  -0.00000124          0.00      0.00     -0.18


     Writing output data file template.save

     init_run     :      2.60s CPU      2.63s WALL (       1 calls)
     electrons    :     28.60s CPU     29.80s WALL (       1 calls)
     forces       :      0.82s CPU      0.82s WALL (       1 calls)
     stress       :      5.70s CPU      5.80s WALL (       1 calls)

     Called by init_run:
     wfcinit      :      1.44s CPU      1.47s WALL (       1 calls)
     potinit      :      0.32s CPU      0.32s WALL (       1 calls)

     Called by electrons:
     c_bands      :     22.52s CPU     23.45s WALL (       7 calls)
     sum_band     :      4.96s CPU      5.18s WALL (       7 calls)
     v_of_rho     :      0.13s CPU      0.14s WALL (       7 calls)
     newd         :      0.25s CPU      0.26s WALL (       7 calls)
     PAW_pot      :      0.78s CPU      0.83s WALL (       7 calls)
     mix_rho      :      0.02s CPU      0.02s WALL (       7 calls)

     Called by c_bands:
     init_us_2    :      0.56s CPU      0.62s WALL (    1700 calls)
     cegterg      :     21.88s CPU     22.75s WALL (     700 calls)

     Called by sum_band:
     sum_band:bec :      0.03s CPU      0.02s WALL (     700 calls)
     addusdens    :      0.28s CPU      0.28s WALL (       7 calls)

     Called by *egterg:
     h_psi        :     20.64s CPU     21.31s WALL (    2440 calls)
     s_psi        :      0.29s CPU      0.36s WALL (    2440 calls)
     g_psi        :      0.05s CPU      0.05s WALL (    1640 calls)
     cdiaghg      :      0.79s CPU      0.76s WALL (    2240 calls)

     Called by h_psi:
     h_psi:pot    :     20.58s CPU     21.26s WALL (    2440 calls)
     h_psi:calbec :      0.58s CPU      0.59s WALL (    2440 calls)
     vloc_psi     :     19.58s CPU     20.25s WALL (    2440 calls)
     add_vuspsi   :      0.42s CPU      0.40s WALL (    2440 calls)

     General routines
     calbec       :      1.08s CPU      1.10s WALL (    3640 calls)
     fft          :      0.21s CPU      0.23s WALL (     137 calls)
     ffts         :      0.02s CPU      0.02s WALL (      14 calls)
     fftw         :     22.59s CPU     23.42s WALL (   45924 calls)
     interpolate  :      0.03s CPU      0.03s WALL (      14 calls)
     davcio       :      0.00s CPU      0.01s WALL (     100 calls)

     Parallel routines
     fft_scatter  :      5.27s CPU      5.53s WALL (   46075 calls)

     PWSCF        :    39.41s CPU        41.13s WALL


   This run was terminated on:  13:48: 1   9Jun2017            

=------------------------------------------------------------------------------=
   JOB DONE.
=------------------------------------------------------------------------------=
