
     Program PWSCF v.6.0 (svn rev. 13079) starts on  9Jun2017 at 13:50: 8 

     This program is part of the open-source Quantum ESPRESSO suite
     for quantum simulation of materials; please cite
         "P. Giannozzi et al., J. Phys.:Condens. Matter 21 395502 (2009);
          URL http://www.quantum-espresso.org", 
     in publications or presentations arising from this work. More details at
     http://www.quantum-espresso.org/quote

     Parallel version (MPI), running on     4 processors
     R & G space division:  proc/nbgrp/npool/nimage =       4
     Waiting for input...
     Reading input from standard input
Warning: card &IONS ignored
Warning: card ION_DYNAMICS='BFGS', ignored
Warning: card / ignored
Warning: card &CELL ignored
Warning: card CELL_DYNAMICS='BFGS', ignored
Warning: card PRESS = 0.0, ignored
Warning: card CELL_FACTOR = 2.0, ignored
Warning: card / ignored

     Current dimensions of program PWSCF are:
     Max number of different atomic species (ntypx) = 10
     Max number of k-points (npk) =  40000
     Max angular momentum in pseudopotentials (lmaxx) =  3
               file Al.pbe-nl-kjpaw_psl.1.0.0.UPF: wavefunction(s)  3S 3P renormalized
               file Al.pbe-nl-kjpaw_psl.1.0.0.UPF: wavefunction(s)  3S 3P renormalized
               file Al.pbe-nl-kjpaw_psl.1.0.0.UPF: wavefunction(s)  3S 3P renormalized
               file Al.pbe-nl-kjpaw_psl.1.0.0.UPF: wavefunction(s)  3S 3P renormalized

     Subspace diagonalization in iterative solution of the eigenvalue problem:
     a serial algorithm will be used


     Parallelization info
     --------------------
     sticks:   dense  smooth     PW     G-vecs:    dense   smooth      PW
     Min         231     162     50                 5282     3096     532
     Max         232     163     51                 5283     3099     533
     Sum         925     649    201                21131    12389    2129



     bravais-lattice index     =            0
     lattice parameter (alat)  =       7.6205  a.u.
     unit-cell volume          =     442.5300 (a.u.)^3
     number of atoms/cell      =            4
     number of atomic types    =            4
     number of electrons       =        12.00
     number of Kohn-Sham states=           10
     kinetic-energy cutoff     =      35.0000  Ry
     charge density cutoff     =     200.0000  Ry
     convergence threshold     =      1.0E-06
     mixing beta               =       0.3000
     number of iterations used =           10  TF        mixing
     Exchange-correlation      =  SLA  PW   PBX  PBC ( 1  4  3  4 0 0)

     celldm(1)=   7.620455  celldm(2)=   0.000000  celldm(3)=   0.000000
     celldm(4)=   0.000000  celldm(5)=   0.000000  celldm(6)=   0.000000

     crystal axes: (cart. coord. in units of alat)
               a(1) = (   1.000000   0.010000   0.000000 )  
               a(2) = (   0.010000   1.000000   0.000000 )  
               a(3) = (   0.000000   0.000000   1.000100 )  

     reciprocal axes: (cart. coord. in units 2 pi/alat)
               b(1) = (  1.000100 -0.010001  0.000000 )  
               b(2) = ( -0.010001  1.000100  0.000000 )  
               b(3) = (  0.000000  0.000000  0.999900 )  


     PseudoPot. # 1 for Al read from file:
     /home/ben/espresso/pp/Al.pbe-nl-kjpaw_psl.1.0.0.UPF
     MD5 check sum: 339dbea23cf3ab9a065ad45c0f9085d7
     Pseudo is Projector augmented-wave + core cor, Zval =  3.0
     Generated using "atomic" code by A. Dal Corso  v.5.1
     Shape of augmentation charge: PSQ
     Using radial grid of 1135 points,  4 beta functions with: 
                l(1) =   0
                l(2) =   0
                l(3) =   1
                l(4) =   1
     Q(r) pseudized with 0 coefficients 


     PseudoPot. # 2 for Al read from file:
     /home/ben/espresso/pp/Al.pbe-nl-kjpaw_psl.1.0.0.UPF
     MD5 check sum: 339dbea23cf3ab9a065ad45c0f9085d7
     Pseudo is Projector augmented-wave + core cor, Zval =  3.0
     Generated using "atomic" code by A. Dal Corso  v.5.1
     Shape of augmentation charge: PSQ
     Using radial grid of 1135 points,  4 beta functions with: 
                l(1) =   0
                l(2) =   0
                l(3) =   1
                l(4) =   1
     Q(r) pseudized with 0 coefficients 


     PseudoPot. # 3 for Al read from file:
     /home/ben/espresso/pp/Al.pbe-nl-kjpaw_psl.1.0.0.UPF
     MD5 check sum: 339dbea23cf3ab9a065ad45c0f9085d7
     Pseudo is Projector augmented-wave + core cor, Zval =  3.0
     Generated using "atomic" code by A. Dal Corso  v.5.1
     Shape of augmentation charge: PSQ
     Using radial grid of 1135 points,  4 beta functions with: 
                l(1) =   0
                l(2) =   0
                l(3) =   1
                l(4) =   1
     Q(r) pseudized with 0 coefficients 


     PseudoPot. # 4 for Al read from file:
     /home/ben/espresso/pp/Al.pbe-nl-kjpaw_psl.1.0.0.UPF
     MD5 check sum: 339dbea23cf3ab9a065ad45c0f9085d7
     Pseudo is Projector augmented-wave + core cor, Zval =  3.0
     Generated using "atomic" code by A. Dal Corso  v.5.1
     Shape of augmentation charge: PSQ
     Using radial grid of 1135 points,  4 beta functions with: 
                l(1) =   0
                l(2) =   0
                l(3) =   1
                l(4) =   1
     Q(r) pseudized with 0 coefficients 


     atomic species   valence    mass     pseudopotential
        Al1            3.00    26.98200     Al( 1.00)
        Al2            3.00    26.98200     Al( 1.00)
        Al3            3.00    26.98200     Al( 1.00)
        Al4            3.00    26.98200     Al( 1.00)

      4 Sym. Ops., with inversion, found



   Cartesian axes

     site n.     atom                  positions (alat units)
         1           Al1 tau(   1) = (   0.0000000   0.0000000   0.0000000  )
         2           Al2 tau(   2) = (   0.5050000   0.5050000   0.0000000  )
         3           Al3 tau(   3) = (   0.5000000   0.0050000   0.5000500  )
         4           Al4 tau(   4) = (   0.0050000   0.5000000   0.5000500  )

     number of k points=   100  Marzari-Vanderbilt smearing, width (Ry)=  0.0200

     Number of k-points >= 100: set verbosity='high' to print them.

     Dense  grid:    21131 G-vectors     FFT dimensions: (  36,  36,  36)

     Smooth grid:    12389 G-vectors     FFT dimensions: (  30,  30,  30)

     Estimated max dynamical RAM per process >      10.13Mb

     Estimated total allocated dynamical RAM >      40.51Mb

     Initial potential from superposition of free atoms

     starting charge   11.99084, renormalised to   12.00000
     Starting wfc are   16 randomized atomic wfcs
     Checking if some PAW data can be deallocated... 

     total cpu time spent up to now is       11.1 secs

     per-process dynamical memory:    19.6 Mb

     Self-consistent Calculation

     iteration #  1     ecut=    35.00 Ry     beta=0.30
     Davidson diagonalization with overlap
     ethr =  1.00E-02,  avg # of iterations =  3.3

     Threshold (ethr) on eigenvalues was too large:
     Diagonalizing with lowered threshold

     Davidson diagonalization with overlap
     ethr =  1.99E-04,  avg # of iterations =  3.3

     total cpu time spent up to now is       17.0 secs

     total energy              =    -158.01031704 Ry
     Harris-Foulkes estimate   =    -158.01242006 Ry
     estimated scf accuracy    <       0.02302326 Ry

     iteration #  2     ecut=    35.00 Ry     beta=0.30
     Davidson diagonalization with overlap
     ethr =  1.92E-04,  avg # of iterations =  1.0

     total cpu time spent up to now is       19.1 secs

     total energy              =    -158.00597965 Ry
     Harris-Foulkes estimate   =    -158.01043595 Ry
     estimated scf accuracy    <       0.01433462 Ry

     iteration #  3     ecut=    35.00 Ry     beta=0.30
     Davidson diagonalization with overlap
     ethr =  1.19E-04,  avg # of iterations =  1.1

     total cpu time spent up to now is       21.4 secs

     total energy              =    -158.00625331 Ry
     Harris-Foulkes estimate   =    -158.00624254 Ry
     estimated scf accuracy    <       0.00003618 Ry

     iteration #  4     ecut=    35.00 Ry     beta=0.30
     Davidson diagonalization with overlap
     ethr =  3.02E-07,  avg # of iterations =  4.7

     total cpu time spent up to now is       27.3 secs

     total energy              =    -158.00632981 Ry
     Harris-Foulkes estimate   =    -158.00631318 Ry
     estimated scf accuracy    <       0.00001780 Ry

     iteration #  5     ecut=    35.00 Ry     beta=0.30
     Davidson diagonalization with overlap
     ethr =  1.48E-07,  avg # of iterations =  1.0

     total cpu time spent up to now is       34.1 secs

     total energy              =    -158.00632769 Ry
     Harris-Foulkes estimate   =    -158.00633078 Ry
     estimated scf accuracy    <       0.00000681 Ry

     iteration #  6     ecut=    35.00 Ry     beta=0.30
     Davidson diagonalization with overlap
     ethr =  5.67E-08,  avg # of iterations =  2.0

     total cpu time spent up to now is       39.4 secs

     End of self-consistent calculation

     Number of k-points >= 100: set verbosity='high' to print the bands.

     the Fermi energy is     7.9467 ev

!    total energy              =    -158.00632833 Ry
     Harris-Foulkes estimate   =    -158.00632852 Ry
     estimated scf accuracy    <       0.00000008 Ry

     total all-electron energy =     -1942.577456 Ry

     The total energy is the sum of the following terms:

     one-electron contribution =      12.71322818 Ry
     hartree contribution      =       0.02438495 Ry
     xc contribution           =     -10.37576184 Ry
     ewald contribution        =     -21.65857621 Ry
     one-center paw contrib.   =    -138.70985939 Ry
     smearing contrib. (-TS)   =       0.00025598 Ry

     convergence has been achieved in   6 iterations

     Forces acting on atoms (Ry/au):

     atom    1 type  1   force =     0.00000000    0.00000000    0.00000000
     atom    2 type  2   force =     0.00000000    0.00000000    0.00000000
     atom    3 type  3   force =     0.00000000    0.00000000    0.00000000
     atom    4 type  4   force =     0.00000000    0.00000000    0.00000000

     Total force =     0.000000     Total SCF correction =     0.000000


     entering subroutine stress ...

          total   stress  (Ry/bohr**3)                   (kbar)     P=    0.59
   0.00000756   0.00002204   0.00000000          1.11      3.24      0.00
   0.00002204   0.00000756   0.00000000          3.24      1.11      0.00
   0.00000000   0.00000000  -0.00000303          0.00      0.00     -0.45


     Writing output data file template.save

     init_run     :      7.69s CPU      7.94s WALL (       1 calls)
     electrons    :     27.98s CPU     28.34s WALL (       1 calls)
     forces       :      0.74s CPU      0.74s WALL (       1 calls)
     stress       :      1.88s CPU      1.90s WALL (       1 calls)

     Called by init_run:
     wfcinit      :      3.90s CPU      4.05s WALL (       1 calls)
     potinit      :      1.04s CPU      1.08s WALL (       1 calls)

     Called by electrons:
     c_bands      :     22.35s CPU     22.64s WALL (       7 calls)
     sum_band     :      4.60s CPU      4.68s WALL (       7 calls)
     v_of_rho     :      0.15s CPU      0.15s WALL (       7 calls)
     newd         :      0.24s CPU      0.26s WALL (       7 calls)
     PAW_pot      :      0.88s CPU      0.89s WALL (       7 calls)
     mix_rho      :      0.02s CPU      0.02s WALL (       7 calls)

     Called by c_bands:
     init_us_2    :      0.58s CPU      0.58s WALL (    1700 calls)
     cegterg      :     21.73s CPU     21.97s WALL (     700 calls)

     Called by sum_band:
     sum_band:bec :      0.01s CPU      0.01s WALL (     700 calls)
     addusdens    :      0.22s CPU      0.22s WALL (       7 calls)

     Called by *egterg:
     h_psi        :     22.63s CPU     22.88s WALL (    2437 calls)
     s_psi        :      0.38s CPU      0.39s WALL (    2437 calls)
     g_psi        :      0.08s CPU      0.05s WALL (    1637 calls)
     cdiaghg      :      0.65s CPU      0.73s WALL (    2237 calls)

     Called by h_psi:
     h_psi:pot    :     22.58s CPU     22.82s WALL (    2437 calls)
     h_psi:calbec :      0.63s CPU      0.62s WALL (    2437 calls)
     vloc_psi     :     21.51s CPU     21.77s WALL (    2437 calls)
     add_vuspsi   :      0.44s CPU      0.42s WALL (    2437 calls)

     General routines
     calbec       :      0.90s CPU      0.93s WALL (    3637 calls)
     fft          :      0.21s CPU      0.24s WALL (     137 calls)
     ffts         :      0.01s CPU      0.01s WALL (      14 calls)
     fftw         :     24.36s CPU     24.56s WALL (   45790 calls)
     interpolate  :      0.02s CPU      0.03s WALL (      14 calls)
     davcio       :      0.00s CPU      0.00s WALL (     100 calls)

     Parallel routines
     fft_scatter  :      5.30s CPU      5.38s WALL (   45941 calls)

     PWSCF        :    41.49s CPU        42.33s WALL


   This run was terminated on:  13:50:51   9Jun2017            

=------------------------------------------------------------------------------=
   JOB DONE.
=------------------------------------------------------------------------------=
