
     Program PWSCF v.6.0 (svn rev. 13079) starts on  9Jun2017 at 13:53:30 

     This program is part of the open-source Quantum ESPRESSO suite
     for quantum simulation of materials; please cite
         "P. Giannozzi et al., J. Phys.:Condens. Matter 21 395502 (2009);
          URL http://www.quantum-espresso.org", 
     in publications or presentations arising from this work. More details at
     http://www.quantum-espresso.org/quote

     Parallel version (MPI), running on     4 processors
     R & G space division:  proc/nbgrp/npool/nimage =       4
     Waiting for input...
     Reading input from standard input
Warning: card &IONS ignored
Warning: card ION_DYNAMICS='BFGS', ignored
Warning: card / ignored
Warning: card &CELL ignored
Warning: card CELL_DYNAMICS='BFGS', ignored
Warning: card PRESS = 0.0, ignored
Warning: card CELL_FACTOR = 2.0, ignored
Warning: card / ignored

     Current dimensions of program PWSCF are:
     Max number of different atomic species (ntypx) = 10
     Max number of k-points (npk) =  40000
     Max angular momentum in pseudopotentials (lmaxx) =  3
               file Al.pbe-nl-kjpaw_psl.1.0.0.UPF: wavefunction(s)  3S 3P renormalized
               file Al.pbe-nl-kjpaw_psl.1.0.0.UPF: wavefunction(s)  3S 3P renormalized
               file Al.pbe-nl-kjpaw_psl.1.0.0.UPF: wavefunction(s)  3S 3P renormalized
               file Al.pbe-nl-kjpaw_psl.1.0.0.UPF: wavefunction(s)  3S 3P renormalized

     Subspace diagonalization in iterative solution of the eigenvalue problem:
     a serial algorithm will be used


     Parallelization info
     --------------------
     sticks:   dense  smooth     PW     G-vecs:    dense   smooth      PW
     Min         229     161     50                 5286     3103     540
     Max         231     162     52                 5289     3104     541
     Sum         919     647    205                21149    12415    2161



     bravais-lattice index     =            0
     lattice parameter (alat)  =       7.6205  a.u.
     unit-cell volume          =     442.5300 (a.u.)^3
     number of atoms/cell      =            4
     number of atomic types    =            4
     number of electrons       =        12.00
     number of Kohn-Sham states=           10
     kinetic-energy cutoff     =      35.0000  Ry
     charge density cutoff     =     200.0000  Ry
     convergence threshold     =      1.0E-06
     mixing beta               =       0.3000
     number of iterations used =           10  TF        mixing
     Exchange-correlation      =  SLA  PW   PBX  PBC ( 1  4  3  4 0 0)

     celldm(1)=   7.620455  celldm(2)=   0.000000  celldm(3)=   0.000000
     celldm(4)=   0.000000  celldm(5)=   0.000000  celldm(6)=   0.000000

     crystal axes: (cart. coord. in units of alat)
               a(1) = (   1.000000   0.020000   0.000000 )  
               a(2) = (   0.020000   1.000000   0.000000 )  
               a(3) = (   0.000000   0.000000   1.000400 )  

     reciprocal axes: (cart. coord. in units 2 pi/alat)
               b(1) = (  1.000400 -0.020008  0.000000 )  
               b(2) = ( -0.020008  1.000400  0.000000 )  
               b(3) = (  0.000000  0.000000  0.999600 )  


     PseudoPot. # 1 for Al read from file:
     /home/ben/espresso/pp/Al.pbe-nl-kjpaw_psl.1.0.0.UPF
     MD5 check sum: 339dbea23cf3ab9a065ad45c0f9085d7
     Pseudo is Projector augmented-wave + core cor, Zval =  3.0
     Generated using "atomic" code by A. Dal Corso  v.5.1
     Shape of augmentation charge: PSQ
     Using radial grid of 1135 points,  4 beta functions with: 
                l(1) =   0
                l(2) =   0
                l(3) =   1
                l(4) =   1
     Q(r) pseudized with 0 coefficients 


     PseudoPot. # 2 for Al read from file:
     /home/ben/espresso/pp/Al.pbe-nl-kjpaw_psl.1.0.0.UPF
     MD5 check sum: 339dbea23cf3ab9a065ad45c0f9085d7
     Pseudo is Projector augmented-wave + core cor, Zval =  3.0
     Generated using "atomic" code by A. Dal Corso  v.5.1
     Shape of augmentation charge: PSQ
     Using radial grid of 1135 points,  4 beta functions with: 
                l(1) =   0
                l(2) =   0
                l(3) =   1
                l(4) =   1
     Q(r) pseudized with 0 coefficients 


     PseudoPot. # 3 for Al read from file:
     /home/ben/espresso/pp/Al.pbe-nl-kjpaw_psl.1.0.0.UPF
     MD5 check sum: 339dbea23cf3ab9a065ad45c0f9085d7
     Pseudo is Projector augmented-wave + core cor, Zval =  3.0
     Generated using "atomic" code by A. Dal Corso  v.5.1
     Shape of augmentation charge: PSQ
     Using radial grid of 1135 points,  4 beta functions with: 
                l(1) =   0
                l(2) =   0
                l(3) =   1
                l(4) =   1
     Q(r) pseudized with 0 coefficients 


     PseudoPot. # 4 for Al read from file:
     /home/ben/espresso/pp/Al.pbe-nl-kjpaw_psl.1.0.0.UPF
     MD5 check sum: 339dbea23cf3ab9a065ad45c0f9085d7
     Pseudo is Projector augmented-wave + core cor, Zval =  3.0
     Generated using "atomic" code by A. Dal Corso  v.5.1
     Shape of augmentation charge: PSQ
     Using radial grid of 1135 points,  4 beta functions with: 
                l(1) =   0
                l(2) =   0
                l(3) =   1
                l(4) =   1
     Q(r) pseudized with 0 coefficients 


     atomic species   valence    mass     pseudopotential
        Al1            3.00    26.98200     Al( 1.00)
        Al2            3.00    26.98200     Al( 1.00)
        Al3            3.00    26.98200     Al( 1.00)
        Al4            3.00    26.98200     Al( 1.00)

      4 Sym. Ops., with inversion, found



   Cartesian axes

     site n.     atom                  positions (alat units)
         1           Al1 tau(   1) = (   0.0000000   0.0000000   0.0000000  )
         2           Al2 tau(   2) = (   0.5100000   0.5100000   0.0000000  )
         3           Al3 tau(   3) = (   0.5000000   0.0100000   0.5002001  )
         4           Al4 tau(   4) = (   0.0100000   0.5000000   0.5002001  )

     number of k points=   100  Marzari-Vanderbilt smearing, width (Ry)=  0.0200

     Number of k-points >= 100: set verbosity='high' to print them.

     Dense  grid:    21149 G-vectors     FFT dimensions: (  36,  36,  36)

     Smooth grid:    12415 G-vectors     FFT dimensions: (  30,  30,  30)

     Estimated max dynamical RAM per process >      10.13Mb

     Estimated total allocated dynamical RAM >      40.52Mb

     Initial potential from superposition of free atoms

     starting charge   11.99084, renormalised to   12.00000
     Starting wfc are   16 randomized atomic wfcs
     Checking if some PAW data can be deallocated... 

     total cpu time spent up to now is        3.4 secs

     per-process dynamical memory:    19.5 Mb

     Self-consistent Calculation

     iteration #  1     ecut=    35.00 Ry     beta=0.30
     Davidson diagonalization with overlap
     ethr =  1.00E-02,  avg # of iterations =  3.3

     Threshold (ethr) on eigenvalues was too large:
     Diagonalizing with lowered threshold

     Davidson diagonalization with overlap
     ethr =  1.98E-04,  avg # of iterations =  3.2

     total cpu time spent up to now is        9.4 secs

     total energy              =    -158.01040729 Ry
     Harris-Foulkes estimate   =    -158.01249473 Ry
     estimated scf accuracy    <       0.02294057 Ry

     iteration #  2     ecut=    35.00 Ry     beta=0.30
     Davidson diagonalization with overlap
     ethr =  1.91E-04,  avg # of iterations =  1.2

     total cpu time spent up to now is       11.5 secs

     total energy              =    -158.00611812 Ry
     Harris-Foulkes estimate   =    -158.01053125 Ry
     estimated scf accuracy    <       0.01427832 Ry

     iteration #  3     ecut=    35.00 Ry     beta=0.30
     Davidson diagonalization with overlap
     ethr =  1.19E-04,  avg # of iterations =  1.0

     total cpu time spent up to now is       17.1 secs

     total energy              =    -158.00638669 Ry
     Harris-Foulkes estimate   =    -158.00637653 Ry
     estimated scf accuracy    <       0.00003592 Ry

     iteration #  4     ecut=    35.00 Ry     beta=0.30
     Davidson diagonalization with overlap
     ethr =  2.99E-07,  avg # of iterations =  4.0

     total cpu time spent up to now is       27.1 secs

     total energy              =    -158.00646251 Ry
     Harris-Foulkes estimate   =    -158.00644576 Ry
     estimated scf accuracy    <       0.00001822 Ry

     iteration #  5     ecut=    35.00 Ry     beta=0.30
     Davidson diagonalization with overlap
     ethr =  1.52E-07,  avg # of iterations =  1.0

     total cpu time spent up to now is       29.1 secs

     total energy              =    -158.00646031 Ry
     Harris-Foulkes estimate   =    -158.00646349 Ry
     estimated scf accuracy    <       0.00000709 Ry

     iteration #  6     ecut=    35.00 Ry     beta=0.30
     Davidson diagonalization with overlap
     ethr =  5.91E-08,  avg # of iterations =  2.0

     total cpu time spent up to now is       31.7 secs

     End of self-consistent calculation

     Number of k-points >= 100: set verbosity='high' to print the bands.

     the Fermi energy is     7.9308 ev

!    total energy              =    -158.00646099 Ry
     Harris-Foulkes estimate   =    -158.00646119 Ry
     estimated scf accuracy    <       0.00000008 Ry

     total all-electron energy =     -1942.577589 Ry

     The total energy is the sum of the following terms:

     one-electron contribution =      12.71169230 Ry
     hartree contribution      =       0.02529066 Ry
     xc contribution           =     -10.37687563 Ry
     ewald contribution        =     -21.65587978 Ry
     one-center paw contrib.   =    -138.71094659 Ry
     smearing contrib. (-TS)   =       0.00025805 Ry

     convergence has been achieved in   6 iterations

     Forces acting on atoms (Ry/au):

     atom    1 type  1   force =     0.00000000    0.00000000    0.00000000
     atom    2 type  2   force =     0.00000000    0.00000000    0.00000000
     atom    3 type  3   force =     0.00000000    0.00000000    0.00000000
     atom    4 type  4   force =     0.00000000    0.00000000    0.00000000

     Total force =     0.000000     Total SCF correction =     0.000000


     entering subroutine stress ...

          total   stress  (Ry/bohr**3)                   (kbar)     P=    2.48
   0.00002531  -0.00000014   0.00000000          3.72     -0.02      0.00
  -0.00000014   0.00002531   0.00000000         -0.02      3.72      0.00
   0.00000000   0.00000000  -0.00000012          0.00      0.00     -0.02


     Writing output data file template.save

     init_run     :      2.36s CPU      2.39s WALL (       1 calls)
     electrons    :     27.68s CPU     28.29s WALL (       1 calls)
     forces       :      0.76s CPU      0.77s WALL (       1 calls)
     stress       :      1.88s CPU      1.90s WALL (       1 calls)

     Called by init_run:
     wfcinit      :      1.24s CPU      1.26s WALL (       1 calls)
     potinit      :      0.30s CPU      0.30s WALL (       1 calls)

     Called by electrons:
     c_bands      :     23.03s CPU     23.59s WALL (       7 calls)
     sum_band     :      3.80s CPU      3.85s WALL (       7 calls)
     v_of_rho     :      0.12s CPU      0.11s WALL (       7 calls)
     newd         :      0.18s CPU      0.18s WALL (       7 calls)
     PAW_pot      :      0.62s CPU      0.63s WALL (       7 calls)
     mix_rho      :      0.02s CPU      0.01s WALL (       7 calls)

     Called by c_bands:
     init_us_2    :      0.42s CPU      0.49s WALL (    1700 calls)
     cegterg      :     22.48s CPU     22.96s WALL (     700 calls)

     Called by sum_band:
     sum_band:bec :      0.02s CPU      0.01s WALL (     700 calls)
     addusdens    :      0.19s CPU      0.20s WALL (       7 calls)

     Called by *egterg:
     h_psi        :     20.88s CPU     21.30s WALL (    2367 calls)
     s_psi        :      0.34s CPU      0.37s WALL (    2367 calls)
     g_psi        :      0.05s CPU      0.05s WALL (    1567 calls)
     cdiaghg      :      0.80s CPU      0.79s WALL (    2167 calls)

     Called by h_psi:
     h_psi:pot    :     20.82s CPU     21.24s WALL (    2367 calls)
     h_psi:calbec :      0.48s CPU      0.56s WALL (    2367 calls)
     vloc_psi     :     19.90s CPU     20.28s WALL (    2367 calls)
     add_vuspsi   :      0.42s CPU      0.40s WALL (    2367 calls)

     General routines
     calbec       :      0.72s CPU      0.86s WALL (    3567 calls)
     fft          :      0.10s CPU      0.11s WALL (     137 calls)
     ffts         :      0.01s CPU      0.01s WALL (      14 calls)
     fftw         :     22.06s CPU     22.45s WALL (   45506 calls)
     interpolate  :      0.02s CPU      0.02s WALL (      14 calls)
     davcio       :      0.00s CPU      0.00s WALL (     100 calls)

     Parallel routines
     fft_scatter  :      4.41s CPU      4.75s WALL (   45657 calls)

     PWSCF        :    33.83s CPU        34.63s WALL


   This run was terminated on:  13:54: 5   9Jun2017            

=------------------------------------------------------------------------------=
   JOB DONE.
=------------------------------------------------------------------------------=
