
     Program PWSCF v.6.0 (svn rev. 13079) starts on  9Jun2017 at 13:28:11 

     This program is part of the open-source Quantum ESPRESSO suite
     for quantum simulation of materials; please cite
         "P. Giannozzi et al., J. Phys.:Condens. Matter 21 395502 (2009);
          URL http://www.quantum-espresso.org", 
     in publications or presentations arising from this work. More details at
     http://www.quantum-espresso.org/quote

     Parallel version (MPI), running on     4 processors
     R & G space division:  proc/nbgrp/npool/nimage =       4
     Waiting for input...
     Reading input from standard input

     Current dimensions of program PWSCF are:
     Max number of different atomic species (ntypx) = 10
     Max number of k-points (npk) =  40000
     Max angular momentum in pseudopotentials (lmaxx) =  3
               file Al.pbe-nl-kjpaw_psl.1.0.0.UPF: wavefunction(s)  3S 3P renormalized
               file Al.pbe-nl-kjpaw_psl.1.0.0.UPF: wavefunction(s)  3S 3P renormalized
               file Al.pbe-nl-kjpaw_psl.1.0.0.UPF: wavefunction(s)  3S 3P renormalized
               file Al.pbe-nl-kjpaw_psl.1.0.0.UPF: wavefunction(s)  3S 3P renormalized

     Subspace diagonalization in iterative solution of the eigenvalue problem:
     a serial algorithm will be used


     Parallelization info
     --------------------
     sticks:   dense  smooth     PW     G-vecs:    dense   smooth      PW
     Min         232     164     49                 5310     3132     527
     Max         234     165     50                 5313     3135     528
     Sum         933     657    197                21247    12533    2109



     bravais-lattice index     =            0
     lattice parameter (alat)  =       7.6300  a.u.
     unit-cell volume          =     444.1949 (a.u.)^3
     number of atoms/cell      =            4
     number of atomic types    =            4
     number of electrons       =        12.00
     number of Kohn-Sham states=           10
     kinetic-energy cutoff     =      35.0000  Ry
     charge density cutoff     =     200.0000  Ry
     convergence threshold     =      1.0E-06
     mixing beta               =       0.3000
     number of iterations used =           10  TF        mixing
     Exchange-correlation      =  SLA  PW   PBX  PBC ( 1  4  3  4 0 0)
     nstep                     =           40


     celldm(1)=   7.630000  celldm(2)=   0.000000  celldm(3)=   0.000000
     celldm(4)=   0.000000  celldm(5)=   0.000000  celldm(6)=   0.000000

     crystal axes: (cart. coord. in units of alat)
               a(1) = (   1.000000   0.000000   0.000000 )  
               a(2) = (   0.000000   1.000000   0.000000 )  
               a(3) = (   0.000000   0.000000   1.000000 )  

     reciprocal axes: (cart. coord. in units 2 pi/alat)
               b(1) = (  1.000000  0.000000  0.000000 )  
               b(2) = (  0.000000  1.000000  0.000000 )  
               b(3) = (  0.000000  0.000000  1.000000 )  


     PseudoPot. # 1 for Al read from file:
     /home/ben/espresso/pp/Al.pbe-nl-kjpaw_psl.1.0.0.UPF
     MD5 check sum: 339dbea23cf3ab9a065ad45c0f9085d7
     Pseudo is Projector augmented-wave + core cor, Zval =  3.0
     Generated using "atomic" code by A. Dal Corso  v.5.1
     Shape of augmentation charge: PSQ
     Using radial grid of 1135 points,  4 beta functions with: 
                l(1) =   0
                l(2) =   0
                l(3) =   1
                l(4) =   1
     Q(r) pseudized with 0 coefficients 


     PseudoPot. # 2 for Al read from file:
     /home/ben/espresso/pp/Al.pbe-nl-kjpaw_psl.1.0.0.UPF
     MD5 check sum: 339dbea23cf3ab9a065ad45c0f9085d7
     Pseudo is Projector augmented-wave + core cor, Zval =  3.0
     Generated using "atomic" code by A. Dal Corso  v.5.1
     Shape of augmentation charge: PSQ
     Using radial grid of 1135 points,  4 beta functions with: 
                l(1) =   0
                l(2) =   0
                l(3) =   1
                l(4) =   1
     Q(r) pseudized with 0 coefficients 


     PseudoPot. # 3 for Al read from file:
     /home/ben/espresso/pp/Al.pbe-nl-kjpaw_psl.1.0.0.UPF
     MD5 check sum: 339dbea23cf3ab9a065ad45c0f9085d7
     Pseudo is Projector augmented-wave + core cor, Zval =  3.0
     Generated using "atomic" code by A. Dal Corso  v.5.1
     Shape of augmentation charge: PSQ
     Using radial grid of 1135 points,  4 beta functions with: 
                l(1) =   0
                l(2) =   0
                l(3) =   1
                l(4) =   1
     Q(r) pseudized with 0 coefficients 


     PseudoPot. # 4 for Al read from file:
     /home/ben/espresso/pp/Al.pbe-nl-kjpaw_psl.1.0.0.UPF
     MD5 check sum: 339dbea23cf3ab9a065ad45c0f9085d7
     Pseudo is Projector augmented-wave + core cor, Zval =  3.0
     Generated using "atomic" code by A. Dal Corso  v.5.1
     Shape of augmentation charge: PSQ
     Using radial grid of 1135 points,  4 beta functions with: 
                l(1) =   0
                l(2) =   0
                l(3) =   1
                l(4) =   1
     Q(r) pseudized with 0 coefficients 


     atomic species   valence    mass     pseudopotential
        Al1            3.00    26.98200     Al( 1.00)
        Al2            3.00    26.98200     Al( 1.00)
        Al3            3.00    26.98200     Al( 1.00)
        Al4            3.00    26.98200     Al( 1.00)

      8 Sym. Ops., with inversion, found



   Cartesian axes

     site n.     atom                  positions (alat units)
         1           Al1 tau(   1) = (   0.0000000   0.0000000   0.0000000  )
         2           Al2 tau(   2) = (   0.5000000   0.5000000   0.0000000  )
         3           Al3 tau(   3) = (   0.5000000   0.0000000   0.5000000  )
         4           Al4 tau(   4) = (   0.0000000   0.5000000   0.5000000  )

     number of k points=    64  Marzari-Vanderbilt smearing, width (Ry)=  0.0200
                       cart. coord. in units 2pi/alat
        k(    1) = (   0.0714286   0.0714286   0.0714286), wk =   0.0466472
        k(    2) = (   0.0714286   0.0714286   0.2142857), wk =   0.0466472
        k(    3) = (   0.0714286   0.0714286   0.3571429), wk =   0.0466472
        k(    4) = (   0.0714286   0.0714286  -0.5000000), wk =   0.0233236
        k(    5) = (   0.0714286   0.2142857   0.2142857), wk =   0.0466472
        k(    6) = (   0.0714286   0.2142857   0.3571429), wk =   0.0466472
        k(    7) = (   0.0714286   0.2142857  -0.5000000), wk =   0.0233236
        k(    8) = (   0.0714286   0.3571429   0.3571429), wk =   0.0466472
        k(    9) = (   0.0714286   0.3571429  -0.5000000), wk =   0.0233236
        k(   10) = (   0.0714286  -0.5000000  -0.5000000), wk =   0.0116618
        k(   11) = (   0.2142857   0.2142857   0.2142857), wk =   0.0466472
        k(   12) = (   0.2142857   0.2142857   0.3571429), wk =   0.0466472
        k(   13) = (   0.2142857   0.2142857  -0.5000000), wk =   0.0233236
        k(   14) = (   0.2142857   0.3571429   0.3571429), wk =   0.0466472
        k(   15) = (   0.2142857   0.3571429  -0.5000000), wk =   0.0233236
        k(   16) = (   0.2142857  -0.5000000  -0.5000000), wk =   0.0116618
        k(   17) = (   0.3571429   0.3571429   0.3571429), wk =   0.0466472
        k(   18) = (   0.3571429   0.3571429  -0.5000000), wk =   0.0233236
        k(   19) = (   0.3571429  -0.5000000  -0.5000000), wk =   0.0116618
        k(   20) = (  -0.5000000  -0.5000000  -0.5000000), wk =   0.0058309
        k(   21) = (   0.2142857  -0.0714286   0.0714286), wk =   0.0466472
        k(   22) = (  -0.0714286   0.2142857   0.0714286), wk =   0.0466472
        k(   23) = (   0.3571429  -0.0714286   0.0714286), wk =   0.0466472
        k(   24) = (  -0.0714286   0.3571429   0.0714286), wk =   0.0466472
        k(   25) = (  -0.5000000  -0.0714286   0.0714286), wk =   0.0233236
        k(   26) = (  -0.0714286  -0.5000000   0.0714286), wk =   0.0233236
        k(   27) = (   0.2142857  -0.2142857   0.0714286), wk =   0.0466472
        k(   28) = (   0.2142857   0.0714286   0.2142857), wk =   0.0466472
        k(   29) = (   0.3571429  -0.2142857   0.0714286), wk =   0.0466472
        k(   30) = (  -0.0714286   0.3571429   0.2142857), wk =   0.0466472
        k(   31) = (   0.2142857   0.3571429   0.0714286), wk =   0.0466472
        k(   32) = (   0.3571429   0.0714286   0.2142857), wk =   0.0466472
        k(   33) = (   0.2142857   0.0714286  -0.3571429), wk =   0.0466472
        k(   34) = (  -0.5000000  -0.2142857   0.0714286), wk =   0.0233236
        k(   35) = (  -0.0714286  -0.5000000   0.2142857), wk =   0.0233236
        k(   36) = (   0.2142857  -0.5000000   0.0714286), wk =   0.0233236
        k(   37) = (  -0.5000000   0.0714286   0.2142857), wk =   0.0233236
        k(   38) = (   0.2142857   0.0714286   0.5000000), wk =   0.0233236
        k(   39) = (   0.3571429  -0.3571429   0.0714286), wk =   0.0466472
        k(   40) = (   0.3571429   0.0714286   0.3571429), wk =   0.0466472
        k(   41) = (  -0.5000000  -0.3571429   0.0714286), wk =   0.0233236
        k(   42) = (  -0.0714286  -0.5000000   0.3571429), wk =   0.0233236
        k(   43) = (   0.3571429  -0.5000000   0.0714286), wk =   0.0233236
        k(   44) = (  -0.5000000   0.0714286   0.3571429), wk =   0.0233236
        k(   45) = (   0.3571429   0.0714286   0.5000000), wk =   0.0233236
        k(   46) = (  -0.5000000   0.5000000   0.0714286), wk =   0.0116618
        k(   47) = (  -0.5000000   0.0714286  -0.5000000), wk =   0.0116618
        k(   48) = (   0.3571429  -0.2142857   0.2142857), wk =   0.0466472
        k(   49) = (  -0.2142857   0.3571429   0.2142857), wk =   0.0466472
        k(   50) = (  -0.5000000  -0.2142857   0.2142857), wk =   0.0233236
        k(   51) = (  -0.2142857  -0.5000000   0.2142857), wk =   0.0233236
        k(   52) = (   0.3571429  -0.3571429   0.2142857), wk =   0.0466472
        k(   53) = (   0.3571429   0.2142857   0.3571429), wk =   0.0466472
        k(   54) = (  -0.5000000  -0.3571429   0.2142857), wk =   0.0233236
        k(   55) = (  -0.2142857  -0.5000000   0.3571429), wk =   0.0233236
        k(   56) = (   0.3571429  -0.5000000   0.2142857), wk =   0.0233236
        k(   57) = (  -0.5000000   0.2142857   0.3571429), wk =   0.0233236
        k(   58) = (   0.3571429   0.2142857   0.5000000), wk =   0.0233236
        k(   59) = (  -0.5000000   0.5000000   0.2142857), wk =   0.0116618
        k(   60) = (  -0.5000000   0.2142857  -0.5000000), wk =   0.0116618
        k(   61) = (  -0.5000000  -0.3571429   0.3571429), wk =   0.0233236
        k(   62) = (  -0.3571429  -0.5000000   0.3571429), wk =   0.0233236
        k(   63) = (  -0.5000000   0.5000000   0.3571429), wk =   0.0116618
        k(   64) = (  -0.5000000   0.3571429  -0.5000000), wk =   0.0116618

     Dense  grid:    21247 G-vectors     FFT dimensions: (  36,  36,  36)

     Smooth grid:    12533 G-vectors     FFT dimensions: (  30,  30,  30)

     Estimated max dynamical RAM per process >       8.04Mb

     Estimated total allocated dynamical RAM >      32.18Mb

     Initial potential from superposition of free atoms

     starting charge   11.99084, renormalised to   12.00000
     Starting wfc are   16 randomized atomic wfcs
     Checking if some PAW data can be deallocated... 

     total cpu time spent up to now is        4.3 secs

     per-process dynamical memory:    19.1 Mb

     Self-consistent Calculation

     iteration #  1     ecut=    35.00 Ry     beta=0.30
     Davidson diagonalization with overlap
     ethr =  1.00E-02,  avg # of iterations =  3.3

     Threshold (ethr) on eigenvalues was too large:
     Diagonalizing with lowered threshold

     Davidson diagonalization with overlap
     ethr =  1.99E-04,  avg # of iterations =  3.0

     total cpu time spent up to now is        8.0 secs

     total energy              =    -158.01019511 Ry
     Harris-Foulkes estimate   =    -158.01229642 Ry
     estimated scf accuracy    <       0.02307404 Ry

     iteration #  2     ecut=    35.00 Ry     beta=0.30
     Davidson diagonalization with overlap
     ethr =  1.92E-04,  avg # of iterations =  1.0

     total cpu time spent up to now is        9.5 secs

     total energy              =    -158.00583782 Ry
     Harris-Foulkes estimate   =    -158.01030975 Ry
     estimated scf accuracy    <       0.01437017 Ry

     iteration #  3     ecut=    35.00 Ry     beta=0.30
     Davidson diagonalization with overlap
     ethr =  1.20E-04,  avg # of iterations =  1.0

     total cpu time spent up to now is       10.9 secs

     total energy              =    -158.00611649 Ry
     Harris-Foulkes estimate   =    -158.00610441 Ry
     estimated scf accuracy    <       0.00003641 Ry

     iteration #  4     ecut=    35.00 Ry     beta=0.30
     Davidson diagonalization with overlap
     ethr =  3.03E-07,  avg # of iterations =  4.5

     total cpu time spent up to now is       13.0 secs

     total energy              =    -158.00619253 Ry
     Harris-Foulkes estimate   =    -158.00617586 Ry
     estimated scf accuracy    <       0.00001739 Ry

     iteration #  5     ecut=    35.00 Ry     beta=0.30
     Davidson diagonalization with overlap
     ethr =  1.45E-07,  avg # of iterations =  1.0

     total cpu time spent up to now is       14.4 secs

     total energy              =    -158.00619053 Ry
     Harris-Foulkes estimate   =    -158.00619351 Ry
     estimated scf accuracy    <       0.00000649 Ry

     iteration #  6     ecut=    35.00 Ry     beta=0.30
     Davidson diagonalization with overlap
     ethr =  5.41E-08,  avg # of iterations =  2.0

     total cpu time spent up to now is       15.8 secs

     End of self-consistent calculation

          k = 0.0714 0.0714 0.0714 (  1539 PWs)   bands (ev):

    -3.0871   4.3874   4.3875   4.3875   7.1976   7.1977   7.1978  11.5392
    11.5393  11.5393

          k = 0.0714 0.0714 0.2143 (  1555 PWs)   bands (ev):

    -2.7172   2.3519   4.7345   4.7345   7.5392   7.5394   9.5827   9.5828
     9.8695  11.8842

          k = 0.0714 0.0714 0.3571 (  1549 PWs)   bands (ev):

    -1.9803   0.5678   5.4258   5.4258   7.7816   7.7818   8.3197   8.3198
    10.7736  10.7739

          k = 0.0714 0.0714-0.5000 (  1544 PWs)   bands (ev):

    -0.8823  -0.8819   6.3617   6.3621   6.5654   6.5659   8.9946   8.9949
     9.7222   9.7228

          k = 0.0714 0.2143 0.2143 (  1553 PWs)   bands (ev):

    -2.3483   2.7074   2.7075   5.0796   7.4906   8.0488   9.8335   9.8337
    10.2880  10.2881

          k = 0.0714 0.2143 0.3571 (  1563 PWs)   bands (ev):

    -1.6132   0.9284   3.4158   5.6945   5.9529   8.1919   8.6431  10.5822
    10.6888  11.3251

          k = 0.0714 0.2143-0.5000 (  1548 PWs)   bands (ev):

    -0.5181  -0.5177   4.4695   4.4699   6.8222   6.8227   9.6580   9.6583
    11.6094  11.6099

          k = 0.0714 0.3571 0.3571 (  1559 PWs)   bands (ev):

    -0.8819   1.6468   1.6468   4.1281   6.4789   8.8840   8.8841   9.3387
    11.2789  11.7040

          k = 0.0714 0.3571-0.5000 (  1564 PWs)   bands (ev):

     0.2077   0.2081   2.7171   2.7175   7.5112   7.5117   9.9138   9.9142
    10.3692  10.3695

          k = 0.0714-0.5000-0.5000 (  1556 PWs)   bands (ev):

     1.2893   1.2895   1.2898   1.2899   8.5435   8.5438   8.5441   8.5441
    11.3971  11.3973

          k = 0.2143 0.2143 0.2143 (  1562 PWs)   bands (ev):

    -1.9803   3.0620   3.0620   3.0620   7.9453   7.9454   7.9454  10.5943
    10.5944  10.5945

          k = 0.2143 0.2143 0.3571 (  1547 PWs)   bands (ev):

    -1.2471   1.2881   3.7670   3.7671   6.2353   6.2355   8.6436  11.0439
    11.2628  11.2628

          k = 0.2143 0.2143-0.5000 (  1558 PWs)   bands (ev):

    -0.1547  -0.1543   4.6947   4.6950   4.9682   4.9687   9.6775   9.6779
    12.0376  12.5698

          k = 0.2143 0.3571 0.3571 (  1545 PWs)   bands (ev):

    -0.5176   2.0046   2.0047   4.3532   4.6192   6.9311   6.9312   9.3490
    11.9540  14.0769

          k = 0.2143 0.3571-0.5000 (  1550 PWs)   bands (ev):

     0.5694   0.5698   3.0710   3.0714   5.5416   5.5420   7.9718   7.9722
    12.9516  12.9520

          k = 0.2143-0.5000-0.5000 (  1552 PWs)   bands (ev):

     1.6482   1.6484   1.6487   1.6487   6.5864   6.5867   6.5869   6.5870
    13.9556  13.9561

          k = 0.3571 0.3571 0.3571 (  1556 PWs)   bands (ev):

     0.2083   2.7166   2.7167   2.7167   5.2025   5.2027   5.2027   7.6398
    14.9430  14.9432

          k = 0.3571 0.3571-0.5000 (  1546 PWs)   bands (ev):

     1.2899   1.2902   3.6681   3.6685   3.9084   3.9089   6.2507   6.2512
    15.7449  16.0363

          k = 0.3571-0.5000-0.5000 (  1568 PWs)   bands (ev):

     2.3625   2.3626   2.3629   2.3630   4.8530   4.8533   4.8535   4.8536
    16.8157  16.8160

          k =-0.5000-0.5000-0.5000 (  1568 PWs)   bands (ev):

     3.3249   3.3250   3.3251   3.3254   3.5473   3.5479   3.5480   3.5482
    19.3564  19.3566

          k = 0.2143-0.0714 0.0714 (  1555 PWs)   bands (ev):

    -2.7172   2.3519   4.7345   4.7345   7.5392   7.5394   9.5827   9.5828
     9.8695  11.8842

          k =-0.0714 0.2143 0.0714 (  1555 PWs)   bands (ev):

    -2.7172   2.3519   4.7345   4.7345   7.5393   7.5393   9.5827   9.5827
     9.8695  11.8842

          k = 0.3571-0.0714 0.0714 (  1549 PWs)   bands (ev):

    -1.9803   0.5678   5.4258   5.4258   7.7816   7.7817   8.3197   8.3198
    10.7736  10.7739

          k =-0.0714 0.3571 0.0714 (  1549 PWs)   bands (ev):

    -1.9803   0.5678   5.4258   5.4258   7.7817   7.7817   8.3197   8.3198
    10.7737  10.7738

          k =-0.5000-0.0714 0.0714 (  1544 PWs)   bands (ev):

    -0.8823  -0.8820   6.3618   6.3620   6.5655   6.5659   8.9947   8.9948
     9.7223   9.7227

          k =-0.0714-0.5000 0.0714 (  1544 PWs)   bands (ev):

    -0.8822  -0.8820   6.3619   6.3620   6.5656   6.5658   8.9947   8.9948
     9.7224   9.7226

          k = 0.2143-0.2143 0.0714 (  1553 PWs)   bands (ev):

    -2.3483   2.7074   2.7075   5.0796   7.4906   8.0488   9.8335   9.8337
    10.2880  10.2881

          k = 0.2143 0.0714 0.2143 (  1553 PWs)   bands (ev):

    -2.3483   2.7074   2.7075   5.0796   7.4906   8.0488   9.8336   9.8337
    10.2880  10.2881

          k = 0.3571-0.2143 0.0714 (  1563 PWs)   bands (ev):

    -1.6132   0.9284   3.4158   5.6945   5.9529   8.1919   8.6431  10.5822
    10.6888  11.3251

          k =-0.0714 0.3571 0.2143 (  1563 PWs)   bands (ev):

    -1.6132   0.9284   3.4158   5.6945   5.9529   8.1919   8.6431  10.5822
    10.6888  11.3251

          k = 0.2143 0.3571 0.0714 (  1563 PWs)   bands (ev):

    -1.6132   0.9284   3.4158   5.6945   5.9529   8.1919   8.6431  10.5822
    10.6888  11.3251

          k = 0.3571 0.0714 0.2143 (  1563 PWs)   bands (ev):

    -1.6132   0.9284   3.4158   5.6945   5.9529   8.1919   8.6431  10.5822
    10.6888  11.3251

          k = 0.2143 0.0714-0.3571 (  1563 PWs)   bands (ev):

    -1.6132   0.9284   3.4158   5.6945   5.9529   8.1919   8.6431  10.5822
    10.6888  11.3251

          k =-0.5000-0.2143 0.0714 (  1548 PWs)   bands (ev):

    -0.5180  -0.5177   4.4695   4.4698   6.8223   6.8226   9.6580   9.6583
    11.6095  11.6098

          k =-0.0714-0.5000 0.2143 (  1548 PWs)   bands (ev):

    -0.5179  -0.5178   4.4696   4.4698   6.8224   6.8225   9.6581   9.6582
    11.6097  11.6102

          k = 0.2143-0.5000 0.0714 (  1548 PWs)   bands (ev):

    -0.5179  -0.5178   4.4696   4.4698   6.8224   6.8226   9.6581   9.6582
    11.6096  11.6098

          k =-0.5000 0.0714 0.2143 (  1548 PWs)   bands (ev):

    -0.5180  -0.5177   4.4696   4.4698   6.8223   6.8226   9.6580   9.6583
    11.6095  11.6098

          k = 0.2143 0.0714 0.5000 (  1548 PWs)   bands (ev):

    -0.5181  -0.5177   4.4695   4.4699   6.8223   6.8227   9.6580   9.6583
    11.6096  11.6105

          k = 0.3571-0.3571 0.0714 (  1559 PWs)   bands (ev):

    -0.8819   1.6468   1.6468   4.1281   6.4789   8.8840   8.8841   9.3387
    11.2788  11.7040

          k = 0.3571 0.0714 0.3571 (  1559 PWs)   bands (ev):

    -0.8819   1.6468   1.6468   4.1281   6.4789   8.8840   8.8841   9.3387
    11.2788  11.7039

          k =-0.5000-0.3571 0.0714 (  1564 PWs)   bands (ev):

     0.2078   0.2081   2.7171   2.7174   7.5113   7.5116   9.9138   9.9142
    10.3692  10.3695

          k =-0.0714-0.5000 0.3571 (  1564 PWs)   bands (ev):

     0.2079   0.2080   2.7172   2.7173   7.5114   7.5115   9.9139   9.9141
    10.3693  10.3694

          k = 0.3571-0.5000 0.0714 (  1564 PWs)   bands (ev):

     0.2079   0.2080   2.7172   2.7173   7.5114   7.5115   9.9139   9.9141
    10.3693  10.3694

          k =-0.5000 0.0714 0.3571 (  1564 PWs)   bands (ev):

     0.2078   0.2081   2.7171   2.7174   7.5113   7.5116   9.9138   9.9142
    10.3692  10.3695

          k = 0.3571 0.0714 0.5000 (  1564 PWs)   bands (ev):

     0.2077   0.2081   2.7171   2.7175   7.5112   7.5117   9.9138   9.9142
    10.3692  10.3695

          k =-0.5000 0.5000 0.0714 (  1556 PWs)   bands (ev):

     1.2894   1.2896   1.2897   1.2898   8.5436   8.5439   8.5440   8.5441
    11.3971  11.3972

          k =-0.5000 0.0714-0.5000 (  1556 PWs)   bands (ev):

     1.2893   1.2896   1.2897   1.2899   8.5435   8.5439   8.5440   8.5442
    11.3969  11.3973

          k = 0.3571-0.2143 0.2143 (  1547 PWs)   bands (ev):

    -1.2471   1.2881   3.7670   3.7671   6.2353   6.2355   8.6436  11.0439
    11.2628  11.2628

          k =-0.2143 0.3571 0.2143 (  1547 PWs)   bands (ev):

    -1.2471   1.2881   3.7670   3.7671   6.2354   6.2354   8.6436  11.0439
    11.2628  11.2628

          k =-0.5000-0.2143 0.2143 (  1558 PWs)   bands (ev):

    -0.1546  -0.1543   4.6947   4.6950   4.9682   4.9686   9.6775   9.6779
    12.5685  12.5698

          k =-0.2143-0.5000 0.2143 (  1558 PWs)   bands (ev):

    -0.1546  -0.1544   4.6948   4.6949   4.9683   4.9685   9.6776   9.6778
    12.0376  12.5698

          k = 0.3571-0.3571 0.2143 (  1545 PWs)   bands (ev):

    -0.5176   2.0046   2.0047   4.3532   4.6192   6.9311   6.9312   9.3490
    11.9540  14.0768

          k = 0.3571 0.2143 0.3571 (  1545 PWs)   bands (ev):

    -0.5176   2.0046   2.0047   4.3532   4.6192   6.9311   6.9312   9.3490
    11.9540  14.0768

          k =-0.5000-0.3571 0.2143 (  1550 PWs)   bands (ev):

     0.5694   0.5697   3.0710   3.0713   5.5416   5.5419   7.9719   7.9722
    12.9516  12.9519

          k =-0.2143-0.5000 0.3571 (  1550 PWs)   bands (ev):

     0.5695   0.5696   3.0711   3.0713   5.5417   5.5419   7.9719   7.9721
    12.9517  12.9518

          k = 0.3571-0.5000 0.2143 (  1550 PWs)   bands (ev):

     0.5695   0.5696   3.0711   3.0713   5.5417   5.5419   7.9719   7.9721
    12.9517  12.9518

          k =-0.5000 0.2143 0.3571 (  1550 PWs)   bands (ev):

     0.5694   0.5697   3.0710   3.0713   5.5416   5.5419   7.9719   7.9722
    12.9516  12.9519

          k = 0.3571 0.2143 0.5000 (  1550 PWs)   bands (ev):

     0.5694   0.5698   3.0710   3.0714   5.5416   5.5420   7.9718   7.9722
    12.9516  12.9520

          k =-0.5000 0.5000 0.2143 (  1552 PWs)   bands (ev):

     1.6483   1.6485   1.6486   1.6487   6.5864   6.5867   6.5869   6.5869
    13.9556  13.9559

          k =-0.5000 0.2143-0.5000 (  1552 PWs)   bands (ev):

     1.6481   1.6485   1.6486   1.6488   6.5863   6.5867   6.5868   6.5871
    13.9556  13.9560

          k =-0.5000-0.3571 0.3571 (  1546 PWs)   bands (ev):

     1.2899   1.2902   3.6682   3.6684   3.9085   3.9089   6.2508   6.2511
    16.0356  16.0363

          k =-0.3571-0.5000 0.3571 (  1546 PWs)   bands (ev):

     1.2900   1.2901   3.6683   3.6684   3.9086   3.9088   6.2509   6.2510
    16.0356  16.0359

          k =-0.5000 0.5000 0.3571 (  1568 PWs)   bands (ev):

     2.3625   2.3627   2.3628   2.3629   4.8531   4.8533   4.8535   4.8535
    16.8158  16.8159

          k =-0.5000 0.3571-0.5000 (  1568 PWs)   bands (ev):

     2.3624   2.3627   2.3628   2.3631   4.8530   4.8533   4.8534   4.8537
    16.8158  16.8159

     the Fermi energy is     7.9199 ev

!    total energy              =    -158.00619115 Ry
     Harris-Foulkes estimate   =    -158.00619133 Ry
     estimated scf accuracy    <       0.00000008 Ry

     total all-electron energy =     -1942.577319 Ry

     The total energy is the sum of the following terms:

     one-electron contribution =      12.67754040 Ry
     hartree contribution      =       0.02398351 Ry
     xc contribution           =     -10.36732875 Ry
     ewald contribution        =     -21.63237678 Ry
     one-center paw contrib.   =    -138.70815449 Ry
     smearing contrib. (-TS)   =       0.00014497 Ry

     convergence has been achieved in   6 iterations

     Forces acting on atoms (Ry/au):

     atom    1 type  1   force =     0.00000000    0.00000000    0.00000000
     atom    2 type  2   force =     0.00000000    0.00000000    0.00000000
     atom    3 type  3   force =     0.00000000    0.00000000    0.00000000
     atom    4 type  4   force =     0.00000000    0.00000000    0.00000000

     Total force =     0.000000     Total SCF correction =     0.000000


     entering subroutine stress ...

          total   stress  (Ry/bohr**3)                   (kbar)     P=   -3.06
  -0.00002077   0.00000000   0.00000000         -3.06      0.00      0.00
   0.00000000  -0.00002077   0.00000000          0.00     -3.06      0.00
   0.00000000   0.00000000  -0.00002076          0.00      0.00     -3.05


     BFGS Geometry Optimization

     number of scf cycles    =   1
     number of bfgs steps    =   0

     enthalpy new            =    -158.0061911486 Ry

     new trust radius        =       0.0021891538 bohr
     new conv_thr            =       0.0000010000 Ry

     new unit-cell volume =    443.50340 a.u.^3 (    65.72042 Ang^3 )

CELL_PARAMETERS (alat=  7.63000000)
   0.999480796   0.000000000   0.000000000
   0.000000000   0.999480651   0.000000000
   0.000000000   0.000000000   0.999480893

ATOMIC_POSITIONS (crystal)
Al1      0.000000000   0.000000000   0.000000000
Al2      0.500000000   0.500000000   0.000000000
Al3      0.500000000   0.000000000   0.500000000
Al4      0.000000000   0.500000000   0.500000000



     Writing output data file template.save
     NEW-OLD atomic charge density approx. for the potential
     extrapolated charge   11.98130, renormalised to   12.00000

     total cpu time spent up to now is       26.0 secs

     per-process dynamical memory:    29.9 Mb

     Self-consistent Calculation

     iteration #  1     ecut=    35.00 Ry     beta=0.30
     Davidson diagonalization with overlap
     ethr =  1.00E-06,  avg # of iterations =  2.5

     Threshold (ethr) on eigenvalues was too large:
     Diagonalizing with lowered threshold

     Davidson diagonalization with overlap
     ethr =  7.64E-10,  avg # of iterations =  3.2

     total cpu time spent up to now is       35.7 secs

     End of self-consistent calculation

          k = 0.0715 0.0715 0.0715 (  1539 PWs)   bands (ev):

    -3.0773   4.4041   4.4041   4.4041   7.2181   7.2181   7.2181  11.5623
    11.5623  11.5624

          k = 0.0715 0.0715 0.2144 (  1555 PWs)   bands (ev):

    -2.7070   2.3670   4.7515   4.7515   7.5598   7.5598   9.6045   9.6046
     9.8919  11.9077

          k = 0.0715 0.0715 0.3573 (  1549 PWs)   bands (ev):

    -1.9694   0.5813   5.4433   5.4433   7.8004   7.8004   8.3421   8.3421
    10.7998  10.7999

          k = 0.0715 0.0715-0.5003 (  1544 PWs)   bands (ev):

    -0.8702  -0.8700   6.3791   6.3793   6.5851   6.5853   9.0139   9.0141
     9.7505   9.7507

          k = 0.0715 0.2144 0.2144 (  1553 PWs)   bands (ev):

    -2.3377   2.7229   2.7229   5.0969   7.5088   8.0723   9.8543   9.8543
    10.3118  10.3119

          k = 0.0715 0.2144 0.3573 (  1563 PWs)   bands (ev):

    -1.6020   0.9422   3.4319   5.7112   5.9723   8.2120   8.6657  10.6044
    10.7098  11.3538

          k = 0.0715 0.2144-0.5003 (  1548 PWs)   bands (ev):

    -0.5056  -0.5054   4.4865   4.4867   6.8414   6.8416   9.6810   9.6812
    11.6328  11.6330

          k = 0.0715 0.3573 0.3573 (  1559 PWs)   bands (ev):

    -0.8699   1.6613   1.6613   4.1448   6.4977   8.9048   8.9049   9.3619
    11.3019  11.7289

          k = 0.0715 0.3573-0.5003 (  1564 PWs)   bands (ev):

     0.2209   0.2211   2.7326   2.7328   7.5309   7.5311   9.9357   9.9359
    10.3934  10.3935

          k = 0.0715-0.5003-0.5003 (  1556 PWs)   bands (ev):

     1.3036   1.3037   1.3038   1.3039   8.5643   8.5643   8.5644   8.5646
    11.4223  11.4223

          k = 0.2144 0.2144 0.2144 (  1562 PWs)   bands (ev):

    -1.9694   3.0777   3.0777   3.0777   7.9655   7.9655   7.9656  10.6182
    10.6182  10.6182

          k = 0.2144 0.2144 0.3573 (  1547 PWs)   bands (ev):

    -1.2355   1.3022   3.7833   3.7834   6.2543   6.2543   8.6645  11.0672
    11.2869  11.2869

          k = 0.2144 0.2144-0.5003 (  1558 PWs)   bands (ev):

    -0.1418  -0.1417   4.7104   4.7105   4.9877   4.9879   9.6996   9.6998
    12.0599  12.0601

          k = 0.2144 0.3573 0.3573 (  1545 PWs)   bands (ev):

    -0.5052   2.0195   2.0195   4.3685   4.6383   6.9507   6.9507   9.3707
    11.9790  14.1015

          k = 0.2144 0.3573-0.5003 (  1550 PWs)   bands (ev):

     0.5829   0.5831   3.0868   3.0870   5.5600   5.5602   7.9924   7.9926
    12.9775  12.9777

          k = 0.2144-0.5003-0.5003 (  1552 PWs)   bands (ev):

     1.6628   1.6629   1.6630   1.6631   6.6058   6.6059   6.6060   6.6061
    13.9828  13.9830

          k = 0.3573 0.3573 0.3573 (  1556 PWs)   bands (ev):

     0.2214   2.7321   2.7321   2.7321   5.2207   5.2207   5.2208   7.6601
    14.9707  14.9707

          k = 0.3573 0.3573-0.5003 (  1546 PWs)   bands (ev):

     1.3041   1.3043   3.6829   3.6830   3.9271   3.9273   6.2699   6.2700
    15.7713  16.0674

          k = 0.3573-0.5003-0.5003 (  1568 PWs)   bands (ev):

     2.3777   2.3778   2.3779   2.3780   4.8710   4.8711   4.8712   4.8713
    16.8454  16.8455

          k =-0.5003-0.5003-0.5003 (  1568 PWs)   bands (ev):

     3.3392   3.3395   3.3395   3.3396   3.5659   3.5660   3.5660   3.5663
    19.3936  19.3937

          k = 0.2144-0.0715 0.0715 (  1555 PWs)   bands (ev):

    -2.7070   2.3670   4.7515   4.7515   7.5598   7.5598   9.6045   9.6046
     9.8919  11.9077

          k =-0.0715 0.2144 0.0715 (  1555 PWs)   bands (ev):

    -2.7070   2.3670   4.7515   4.7515   7.5598   7.5598   9.6045   9.6046
     9.8919  11.9076

          k = 0.3573-0.0715 0.0715 (  1549 PWs)   bands (ev):

    -1.9694   0.5813   5.4433   5.4433   7.8004   7.8004   8.3421   8.3421
    10.7998  10.7999

          k =-0.0715 0.3573 0.0715 (  1549 PWs)   bands (ev):

    -1.9694   0.5813   5.4433   5.4433   7.8004   7.8004   8.3421   8.3421
    10.7998  10.7999

          k =-0.5003-0.0715 0.0715 (  1544 PWs)   bands (ev):

    -0.8702  -0.8700   6.3792   6.3793   6.5851   6.5853   9.0140   9.0141
     9.7505   9.7507

          k =-0.0715-0.5003 0.0715 (  1544 PWs)   bands (ev):

    -0.8701  -0.8700   6.3792   6.3793   6.5851   6.5852   9.0140   9.0141
     9.7505   9.7506

          k = 0.2144-0.2144 0.0715 (  1553 PWs)   bands (ev):

    -2.3377   2.7229   2.7229   5.0969   7.5088   8.0723   9.8543   9.8543
    10.3119  10.3119

          k = 0.2144 0.0715 0.2144 (  1553 PWs)   bands (ev):

    -2.3377   2.7229   2.7229   5.0969   7.5088   8.0723   9.8543   9.8543
    10.3118  10.3119

          k = 0.3573-0.2144 0.0715 (  1563 PWs)   bands (ev):

    -1.6020   0.9422   3.4319   5.7112   5.9723   8.2120   8.6657  10.6044
    10.7098  11.3538

          k =-0.0715 0.3573 0.2144 (  1563 PWs)   bands (ev):

    -1.6020   0.9422   3.4319   5.7112   5.9723   8.2120   8.6657  10.6044
    10.7098  11.3538

          k = 0.2144 0.3573 0.0715 (  1563 PWs)   bands (ev):

    -1.6020   0.9422   3.4319   5.7112   5.9723   8.2120   8.6657  10.6044
    10.7098  11.3538

          k = 0.3573 0.0715 0.2144 (  1563 PWs)   bands (ev):

    -1.6020   0.9422   3.4319   5.7112   5.9723   8.2120   8.6657  10.6044
    10.7098  11.3538

          k = 0.2144 0.0715-0.3573 (  1563 PWs)   bands (ev):

    -1.6020   0.9422   3.4319   5.7112   5.9723   8.2120   8.6657  10.6044
    10.7098  11.3538

          k =-0.5003-0.2144 0.0715 (  1548 PWs)   bands (ev):

    -0.5056  -0.5054   4.4865   4.4867   6.8414   6.8416   9.6810   9.6812
    11.6329  11.6330

          k =-0.0715-0.5003 0.2144 (  1548 PWs)   bands (ev):

    -0.5055  -0.5054   4.4866   4.4867   6.8414   6.8415   9.6810   9.6811
    11.6330  11.6332

          k = 0.2144-0.5003 0.0715 (  1548 PWs)   bands (ev):

    -0.5055  -0.5054   4.4866   4.4867   6.8414   6.8415   9.6810   9.6811
    11.6329  11.6330

          k =-0.5003 0.0715 0.2144 (  1548 PWs)   bands (ev):

    -0.5056  -0.5054   4.4865   4.4867   6.8414   6.8416   9.6810   9.6812
    11.6329  11.6330

          k = 0.2144 0.0715 0.5003 (  1548 PWs)   bands (ev):

    -0.5056  -0.5054   4.4865   4.4867   6.8414   6.8416   9.6810   9.6812
    11.6330  11.6333

          k = 0.3573-0.3573 0.0715 (  1559 PWs)   bands (ev):

    -0.8699   1.6613   1.6613   4.1448   6.4977   8.9048   8.9049   9.3619
    11.3019  11.7289

          k = 0.3573 0.0715 0.3573 (  1559 PWs)   bands (ev):

    -0.8699   1.6613   1.6613   4.1448   6.4977   8.9048   8.9049   9.3619
    11.3019  11.7289

          k =-0.5003-0.3573 0.0715 (  1564 PWs)   bands (ev):

     0.2210   0.2211   2.7326   2.7328   7.5310   7.5311   9.9357   9.9358
    10.3934  10.3935

          k =-0.0715-0.5003 0.3573 (  1564 PWs)   bands (ev):

     0.2210   0.2211   2.7327   2.7328   7.5310   7.5311   9.9357   9.9358
    10.3934  10.3935

          k = 0.3573-0.5003 0.0715 (  1564 PWs)   bands (ev):

     0.2210   0.2211   2.7327   2.7328   7.5310   7.5311   9.9357   9.9358
    10.3934  10.3935

          k =-0.5003 0.0715 0.3573 (  1564 PWs)   bands (ev):

     0.2210   0.2211   2.7326   2.7328   7.5310   7.5311   9.9357   9.9358
    10.3934  10.3935

          k = 0.3573 0.0715 0.5003 (  1564 PWs)   bands (ev):

     0.2209   0.2211   2.7326   2.7328   7.5309   7.5311   9.9357   9.9359
    10.3934  10.3935

          k =-0.5003 0.5003 0.0715 (  1556 PWs)   bands (ev):

     1.3036   1.3037   1.3038   1.3039   8.5643   8.5644   8.5644   8.5646
    11.4223  11.4223

          k =-0.5003 0.0715-0.5003 (  1556 PWs)   bands (ev):

     1.3036   1.3037   1.3038   1.3039   8.5642   8.5644   8.5644   8.5646
    11.4222  11.4224

          k = 0.3573-0.2144 0.2144 (  1547 PWs)   bands (ev):

    -1.2355   1.3022   3.7833   3.7834   6.2543   6.2543   8.6645  11.0672
    11.2869  11.2869

          k =-0.2144 0.3573 0.2144 (  1547 PWs)   bands (ev):

    -1.2355   1.3022   3.7833   3.7834   6.2543   6.2543   8.6645  11.0672
    11.2869  11.2869

          k =-0.5003-0.2144 0.2144 (  1558 PWs)   bands (ev):

    -0.1418  -0.1417   4.7104   4.7105   4.9877   4.9879   9.6996   9.6998
    12.0600  12.5987

          k =-0.2144-0.5003 0.2144 (  1558 PWs)   bands (ev):

    -0.1418  -0.1417   4.7104   4.7105   4.9877   4.9878   9.6996   9.6997
    12.0600  12.5988

          k = 0.3573-0.3573 0.2144 (  1545 PWs)   bands (ev):

    -0.5052   2.0195   2.0195   4.3685   4.6383   6.9507   6.9507   9.3707
    11.9790  14.1016

          k = 0.3573 0.2144 0.3573 (  1545 PWs)   bands (ev):

    -0.5052   2.0195   2.0195   4.3685   4.6383   6.9507   6.9507   9.3707
    11.9790  14.1015

          k =-0.5003-0.3573 0.2144 (  1550 PWs)   bands (ev):

     0.5829   0.5831   3.0868   3.0870   5.5601   5.5602   7.9924   7.9926
    12.9775  12.9777

          k =-0.2144-0.5003 0.3573 (  1550 PWs)   bands (ev):

     0.5830   0.5831   3.0868   3.0869   5.5601   5.5602   7.9925   7.9926
    12.9775  12.9776

          k = 0.3573-0.5003 0.2144 (  1550 PWs)   bands (ev):

     0.5830   0.5831   3.0868   3.0869   5.5601   5.5602   7.9925   7.9926
    12.9775  12.9776

          k =-0.5003 0.2144 0.3573 (  1550 PWs)   bands (ev):

     0.5829   0.5831   3.0868   3.0870   5.5601   5.5602   7.9924   7.9926
    12.9775  12.9777

          k = 0.3573 0.2144 0.5003 (  1550 PWs)   bands (ev):

     0.5829   0.5831   3.0868   3.0870   5.5600   5.5602   7.9924   7.9926
    12.9775  12.9777

          k =-0.5003 0.5003 0.2144 (  1552 PWs)   bands (ev):

     1.6628   1.6629   1.6630   1.6631   6.6059   6.6059   6.6060   6.6061
    13.9829  13.9830

          k =-0.5003 0.2144-0.5003 (  1552 PWs)   bands (ev):

     1.6628   1.6630   1.6630   1.6632   6.6058   6.6060   6.6060   6.6062
    13.9828  13.9831

          k =-0.5003-0.3573 0.3573 (  1546 PWs)   bands (ev):

     1.3041   1.3043   3.6829   3.6830   3.9272   3.9273   6.2699   6.2700
    15.7713  16.0674

          k =-0.3573-0.5003 0.3573 (  1546 PWs)   bands (ev):

     1.3041   1.3042   3.6829   3.6830   3.9272   3.9273   6.2699   6.2700
    15.7713  15.7714

          k =-0.5003 0.5003 0.3573 (  1568 PWs)   bands (ev):

     2.3777   2.3778   2.3779   2.3780   4.8710   4.8711   4.8712   4.8713
    16.8454  16.8455

          k =-0.5003 0.3573-0.5003 (  1568 PWs)   bands (ev):

     2.3777   2.3778   2.3778   2.3780   4.8710   4.8711   4.8711   4.8713
    16.8454  16.8455

     the Fermi energy is     7.9400 ev

!    total energy              =    -158.00620267 Ry
     Harris-Foulkes estimate   =    -157.99092252 Ry
     estimated scf accuracy    <       0.00000009 Ry

     total all-electron energy =     -1942.577330 Ry

     The total energy is the sum of the following terms:

     one-electron contribution =      12.69256800 Ry
     hartree contribution      =       0.02402526 Ry
     xc contribution           =     -10.37065016 Ry
     ewald contribution        =     -21.64361458 Ry
     one-center paw contrib.   =    -138.70869191 Ry
     smearing contrib. (-TS)   =       0.00016071 Ry

     convergence has been achieved in   1 iterations

     Forces acting on atoms (Ry/au):

     atom    1 type  1   force =     0.00000000    0.00000000    0.00000000
     atom    2 type  2   force =     0.00000000    0.00000000    0.00000000
     atom    3 type  3   force =     0.00000000    0.00000000    0.00000000
     atom    4 type  4   force =     0.00000000    0.00000000    0.00000000

     Total force =     0.000000     Total SCF correction =     0.000000


     entering subroutine stress ...

          total   stress  (Ry/bohr**3)                   (kbar)     P=   -1.79
  -0.00001216   0.00000000   0.00000000         -1.79      0.00      0.00
   0.00000000  -0.00001216   0.00000000          0.00     -1.79      0.00
   0.00000000   0.00000000  -0.00001216          0.00      0.00     -1.79


     number of scf cycles    =   2
     number of bfgs steps    =   1

     enthalpy old            =    -158.0061911486 Ry
     enthalpy new            =    -158.0062026712 Ry

     CASE: enthalpy_new < enthalpy_old

     new trust radius        =       0.0030836280 bohr
     new conv_thr            =       0.0000000100 Ry

     new unit-cell volume =    442.53004 a.u.^3 (    65.57618 Ang^3 )

CELL_PARAMETERS (alat=  7.63000000)
   0.998749054   0.000000000   0.000000000
   0.000000000   0.998748943   0.000000000
   0.000000000   0.000000000   0.998749155

ATOMIC_POSITIONS (crystal)
Al1      0.000000000   0.000000000   0.000000000
Al2      0.500000000   0.500000000   0.000000000
Al3      0.500000000   0.000000000   0.500000000
Al4      0.000000000   0.500000000   0.500000000



     Writing output data file template.save
     NEW-OLD atomic charge density approx. for the potential
     extrapolated charge   11.97363, renormalised to   12.00000

     total cpu time spent up to now is       43.4 secs

     per-process dynamical memory:    29.9 Mb

     Self-consistent Calculation

     iteration #  1     ecut=    35.00 Ry     beta=0.30
     Davidson diagonalization with overlap
     ethr =  1.00E-06,  avg # of iterations =  2.1

     Threshold (ethr) on eigenvalues was too large:
     Diagonalizing with lowered threshold

     Davidson diagonalization with overlap
     ethr =  1.33E-09,  avg # of iterations =  3.5

     total cpu time spent up to now is       47.2 secs

     total energy              =    -158.00620937 Ry
     Harris-Foulkes estimate   =    -157.98464196 Ry
     estimated scf accuracy    <       0.00000015 Ry

     iteration #  2     ecut=    35.00 Ry     beta=0.30
     Davidson diagonalization with overlap
     ethr =  1.28E-09,  avg # of iterations =  1.6

     total cpu time spent up to now is       48.7 secs

     total energy              =    -158.00620924 Ry
     Harris-Foulkes estimate   =    -158.00620939 Ry
     estimated scf accuracy    <       0.00000009 Ry

     iteration #  3     ecut=    35.00 Ry     beta=0.30
     Davidson diagonalization with overlap
     ethr =  7.76E-10,  avg # of iterations =  1.0

     total cpu time spent up to now is       52.1 secs

     End of self-consistent calculation

          k = 0.0715 0.0715 0.0715 (  1539 PWs)   bands (ev):

    -3.0741   4.4172   4.4172   4.4172   7.2362   7.2362   7.2362  11.5845
    11.5845  11.5845

          k = 0.0715 0.0715 0.2146 (  1555 PWs)   bands (ev):

    -2.7033   2.3777   4.7649   4.7649   7.5779   7.5779   9.6250   9.6250
     9.9128  11.9305

          k = 0.0715 0.0715 0.3576 (  1549 PWs)   bands (ev):

    -1.9645   0.5897   5.4575   5.4575   7.8162   7.8162   8.3630   8.3630
    10.8262  10.8262

          k = 0.0715 0.0715-0.5006 (  1544 PWs)   bands (ev):

    -0.8637  -0.8637   6.3930   6.3931   6.6023   6.6023   9.0303   9.0303
     9.7798   9.7798

          k = 0.0715 0.2146 0.2146 (  1553 PWs)   bands (ev):

    -2.3334   2.7341   2.7341   5.1106   7.5239   8.0949   9.8729   9.8729
    10.3349  10.3349

          k = 0.0715 0.2146 0.3576 (  1563 PWs)   bands (ev):

    -1.5966   0.9510   3.4439   5.7241   5.9893   8.2299   8.6868  10.6254
    10.7287  11.3839

          k = 0.0715 0.2146-0.5006 (  1548 PWs)   bands (ev):

    -0.4986  -0.4986   4.4999   4.4999   6.8578   6.8578   9.7027   9.7028
    11.6554  11.6554

          k = 0.0715 0.3576 0.3576 (  1559 PWs)   bands (ev):

    -0.8635   1.6711   1.6711   4.1577   6.5137   8.9237   8.9237   9.3839
    11.3240  11.7535

          k = 0.0715 0.3576-0.5006 (  1564 PWs)   bands (ev):

     0.2289   0.2290   2.7439   2.7440   7.5482   7.5483   9.9560   9.9561
    10.4168  10.4168

          k = 0.0715-0.5006-0.5006 (  1556 PWs)   bands (ev):

     1.3131   1.3131   1.3131   1.3131   8.5829   8.5829   8.5829   8.5829
    11.4472  11.4472

          k = 0.2146 0.2146 0.2146 (  1562 PWs)   bands (ev):

    -1.9645   3.0894   3.0894   3.0894   7.9835   7.9835   7.9835  10.6411
    10.6411  10.6412

          k = 0.2146 0.2146 0.3576 (  1547 PWs)   bands (ev):

    -1.2296   1.3116   3.7958   3.7958   6.2705   6.2705   8.6836  11.0895
    11.3103  11.3103

          k = 0.2146 0.2146-0.5006 (  1558 PWs)   bands (ev):

    -0.1343  -0.1343   4.7217   4.7218   5.0047   5.0047   9.7202   9.7202
    12.0809  12.0810

          k = 0.2146 0.3576 0.3576 (  1545 PWs)   bands (ev):

    -0.4983   2.0298   2.0298   4.3793   4.6549   6.9677   6.9677   9.3909
    12.0037  14.1257

          k = 0.2146 0.3576-0.5006 (  1550 PWs)   bands (ev):

     0.5914   0.5914   3.0985   3.0985   5.5755   5.5756   8.0109   8.0109
    13.0034  13.0034

          k = 0.2146-0.5006-0.5006 (  1552 PWs)   bands (ev):

     1.6728   1.6728   1.6728   1.6728   6.6226   6.6226   6.6226   6.6226
    14.0105  14.0105

          k = 0.3576 0.3576 0.3576 (  1556 PWs)   bands (ev):

     0.2293   2.7432   2.7432   2.7432   5.2358   5.2358   5.2358   7.6782
    14.9990  14.9990

          k = 0.3576 0.3576-0.5006 (  1546 PWs)   bands (ev):

     1.3135   1.3136   3.6928   3.6929   3.9431   3.9431   6.2862   6.2863
    15.7981  16.1013

          k = 0.3576-0.5006-0.5006 (  1568 PWs)   bands (ev):

     2.3885   2.3885   2.3885   2.3885   4.8857   4.8857   4.8857   4.8857
    16.8769  16.8769

          k =-0.5006-0.5006-0.5006 (  1568 PWs)   bands (ev):

     3.3489   3.3489   3.3489   3.3489   3.5815   3.5815   3.5815   3.5815
    19.4355  19.4355

          k = 0.2146-0.0715 0.0715 (  1555 PWs)   bands (ev):

    -2.7033   2.3777   4.7649   4.7649   7.5779   7.5779   9.6250   9.6250
     9.9128  11.9305

          k =-0.0715 0.2146 0.0715 (  1555 PWs)   bands (ev):

    -2.7033   2.3777   4.7649   4.7649   7.5779   7.5779   9.6250   9.6250
     9.9128  11.9305

          k = 0.3576-0.0715 0.0715 (  1549 PWs)   bands (ev):

    -1.9645   0.5897   5.4575   5.4575   7.8162   7.8162   8.3630   8.3630
    10.8262  10.8262

          k =-0.0715 0.3576 0.0715 (  1549 PWs)   bands (ev):

    -1.9645   0.5897   5.4575   5.4575   7.8162   7.8162   8.3630   8.3630
    10.8262  10.8262

          k =-0.5006-0.0715 0.0715 (  1544 PWs)   bands (ev):

    -0.8637  -0.8637   6.3930   6.3931   6.6023   6.6023   9.0303   9.0303
     9.7798   9.7798

          k =-0.0715-0.5006 0.0715 (  1544 PWs)   bands (ev):

    -0.8637  -0.8637   6.3931   6.3931   6.6023   6.6023   9.0303   9.0303
     9.7798   9.7798

          k = 0.2146-0.2146 0.0715 (  1553 PWs)   bands (ev):

    -2.3334   2.7341   2.7341   5.1106   7.5239   8.0949   9.8729   9.8729
    10.3349  10.3349

          k = 0.2146 0.0715 0.2146 (  1553 PWs)   bands (ev):

    -2.3334   2.7341   2.7341   5.1107   7.5239   8.0949   9.8729   9.8729
    10.3349  10.3349

          k = 0.3576-0.2146 0.0715 (  1563 PWs)   bands (ev):

    -1.5966   0.9510   3.4439   5.7241   5.9893   8.2299   8.6868  10.6254
    10.7287  11.3839

          k =-0.0715 0.3576 0.2146 (  1563 PWs)   bands (ev):

    -1.5966   0.9510   3.4439   5.7241   5.9893   8.2299   8.6868  10.6254
    10.7287  11.3839

          k = 0.2146 0.3576 0.0715 (  1563 PWs)   bands (ev):

    -1.5966   0.9510   3.4439   5.7241   5.9893   8.2299   8.6868  10.6254
    10.7287  11.3839

          k = 0.3576 0.0715 0.2146 (  1563 PWs)   bands (ev):

    -1.5966   0.9510   3.4439   5.7241   5.9893   8.2299   8.6868  10.6254
    10.7287  11.3839

          k = 0.2146 0.0715-0.3576 (  1563 PWs)   bands (ev):

    -1.5966   0.9510   3.4439   5.7241   5.9893   8.2299   8.6868  10.6254
    10.7287  11.3839

          k =-0.5006-0.2146 0.0715 (  1548 PWs)   bands (ev):

    -0.4986  -0.4986   4.4999   4.4999   6.8578   6.8578   9.7027   9.7027
    11.6554  11.6554

          k =-0.0715-0.5006 0.2146 (  1548 PWs)   bands (ev):

    -0.4986  -0.4986   4.4999   4.4999   6.8578   6.8578   9.7027   9.7027
    11.6554  11.6554

          k = 0.2146-0.5006 0.0715 (  1548 PWs)   bands (ev):

    -0.4986  -0.4986   4.4999   4.4999   6.8578   6.8578   9.7027   9.7027
    11.6554  11.6554

          k =-0.5006 0.0715 0.2146 (  1548 PWs)   bands (ev):

    -0.4986  -0.4986   4.4999   4.4999   6.8578   6.8578   9.7027   9.7028
    11.6554  11.6554

          k = 0.2146 0.0715 0.5006 (  1548 PWs)   bands (ev):

    -0.4986  -0.4986   4.4999   4.4999   6.8578   6.8578   9.7027   9.7028
    11.6554  11.6554

          k = 0.3576-0.3576 0.0715 (  1559 PWs)   bands (ev):

    -0.8635   1.6711   1.6711   4.1577   6.5137   8.9237   8.9237   9.3839
    11.3240  11.7535

          k = 0.3576 0.0715 0.3576 (  1559 PWs)   bands (ev):

    -0.8635   1.6711   1.6711   4.1577   6.5137   8.9237   8.9237   9.3839
    11.3240  11.7535

          k =-0.5006-0.3576 0.0715 (  1564 PWs)   bands (ev):

     0.2289   0.2290   2.7439   2.7440   7.5482   7.5483   9.9560   9.9561
    10.4168  10.4168

          k =-0.0715-0.5006 0.3576 (  1564 PWs)   bands (ev):

     0.2289   0.2290   2.7439   2.7439   7.5482   7.5483   9.9560   9.9561
    10.4168  10.4168

          k = 0.3576-0.5006 0.0715 (  1564 PWs)   bands (ev):

     0.2289   0.2290   2.7439   2.7439   7.5482   7.5482   9.9560   9.9561
    10.4168  10.4168

          k =-0.5006 0.0715 0.3576 (  1564 PWs)   bands (ev):

     0.2289   0.2290   2.7439   2.7439   7.5482   7.5483   9.9560   9.9561
    10.4168  10.4168

          k = 0.3576 0.0715 0.5006 (  1564 PWs)   bands (ev):

     0.2289   0.2290   2.7439   2.7440   7.5482   7.5483   9.9560   9.9561
    10.4168  10.4168

          k =-0.5006 0.5006 0.0715 (  1556 PWs)   bands (ev):

     1.3131   1.3131   1.3131   1.3131   8.5829   8.5829   8.5829   8.5829
    11.4472  11.4472

          k =-0.5006 0.0715-0.5006 (  1556 PWs)   bands (ev):

     1.3131   1.3131   1.3131   1.3131   8.5829   8.5829   8.5829   8.5829
    11.4471  11.4472

          k = 0.3576-0.2146 0.2146 (  1547 PWs)   bands (ev):

    -1.2296   1.3116   3.7958   3.7958   6.2705   6.2705   8.6836  11.0895
    11.3103  11.3103

          k =-0.2146 0.3576 0.2146 (  1547 PWs)   bands (ev):

    -1.2296   1.3116   3.7958   3.7958   6.2705   6.2705   8.6836  11.0895
    11.3103  11.3103

          k =-0.5006-0.2146 0.2146 (  1558 PWs)   bands (ev):

    -0.1343  -0.1343   4.7217   4.7218   5.0047   5.0047   9.7202   9.7202
    12.0809  12.0810

          k =-0.2146-0.5006 0.2146 (  1558 PWs)   bands (ev):

    -0.1343  -0.1343   4.7217   4.7217   5.0047   5.0047   9.7202   9.7202
    12.0809  12.6296

          k = 0.3576-0.3576 0.2146 (  1545 PWs)   bands (ev):

    -0.4983   2.0298   2.0298   4.3793   4.6549   6.9677   6.9677   9.3909
    12.0037  14.1257

          k = 0.3576 0.2146 0.3576 (  1545 PWs)   bands (ev):

    -0.4983   2.0298   2.0298   4.3793   4.6549   6.9677   6.9677   9.3909
    12.0037  14.1257

          k =-0.5006-0.3576 0.2146 (  1550 PWs)   bands (ev):

     0.5914   0.5914   3.0985   3.0985   5.5755   5.5756   8.0109   8.0109
    13.0034  13.0034

          k =-0.2146-0.5006 0.3576 (  1550 PWs)   bands (ev):

     0.5914   0.5914   3.0985   3.0985   5.5755   5.5756   8.0109   8.0109
    13.0034  13.0034

          k = 0.3576-0.5006 0.2146 (  1550 PWs)   bands (ev):

     0.5914   0.5914   3.0985   3.0985   5.5755   5.5756   8.0109   8.0109
    13.0034  13.0034

          k =-0.5006 0.2146 0.3576 (  1550 PWs)   bands (ev):

     0.5914   0.5914   3.0985   3.0985   5.5755   5.5756   8.0109   8.0109
    13.0034  13.0034

          k = 0.3576 0.2146 0.5006 (  1550 PWs)   bands (ev):

     0.5914   0.5914   3.0985   3.0985   5.5755   5.5756   8.0109   8.0109
    13.0034  13.0034

          k =-0.5006 0.5006 0.2146 (  1552 PWs)   bands (ev):

     1.6728   1.6728   1.6728   1.6728   6.6226   6.6226   6.6226   6.6226
    14.0105  14.0105

          k =-0.5006 0.2146-0.5006 (  1552 PWs)   bands (ev):

     1.6728   1.6728   1.6728   1.6728   6.6226   6.6226   6.6226   6.6226
    14.0105  14.0105

          k =-0.5006-0.3576 0.3576 (  1546 PWs)   bands (ev):

     1.3135   1.3136   3.6928   3.6929   3.9431   3.9431   6.2862   6.2863
    15.7981  16.1013

          k =-0.3576-0.5006 0.3576 (  1546 PWs)   bands (ev):

     1.3135   1.3136   3.6928   3.6929   3.9431   3.9431   6.2862   6.2862
    15.7981  15.7981

          k =-0.5006 0.5006 0.3576 (  1568 PWs)   bands (ev):

     2.3885   2.3885   2.3885   2.3885   4.8857   4.8857   4.8857   4.8857
    16.8769  16.8769

          k =-0.5006 0.3576-0.5006 (  1568 PWs)   bands (ev):

     2.3885   2.3885   2.3885   2.3886   4.8857   4.8857   4.8857   4.8857
    16.8769  16.8769

     the Fermi energy is     7.9578 ev

!    total energy              =    -158.00620924 Ry
     Harris-Foulkes estimate   =    -158.00620924 Ry
     estimated scf accuracy    <          9.3E-09 Ry

     total all-electron energy =     -1942.577337 Ry

     The total energy is the sum of the following terms:

     one-electron contribution =      12.71376432 Ry
     hartree contribution      =       0.02406870 Ry
     xc contribution           =     -10.37533382 Ry
     ewald contribution        =     -21.65947168 Ry
     one-center paw contrib.   =    -138.70942038 Ry
     smearing contrib. (-TS)   =       0.00018362 Ry

     convergence has been achieved in   3 iterations

     Forces acting on atoms (Ry/au):

     atom    1 type  1   force =     0.00000000    0.00000000    0.00000000
     atom    2 type  2   force =     0.00000000    0.00000000    0.00000000
     atom    3 type  3   force =     0.00000000    0.00000000    0.00000000
     atom    4 type  4   force =     0.00000000    0.00000000    0.00000000

     Total force =     0.000000     Total SCF correction =     0.000000


     entering subroutine stress ...

          total   stress  (Ry/bohr**3)                   (kbar)     P=   -0.12
  -0.00000084   0.00000000   0.00000000         -0.12      0.00      0.00
   0.00000000  -0.00000084   0.00000000          0.00     -0.12      0.00
   0.00000000   0.00000000  -0.00000084          0.00      0.00     -0.12


     bfgs converged in   3 scf cycles and   2 bfgs steps
     (criteria: energy <  1.0E-04, force <  1.0E-03, cell <  5.0E-01)

     End of BFGS Geometry Optimization

     Final enthalpy =    -158.0062092409 Ry
Begin final coordinates
     new unit-cell volume =    442.53004 a.u.^3 (    65.57618 Ang^3 )

CELL_PARAMETERS (alat=  7.63000000)
   0.998749054   0.000000000   0.000000000
   0.000000000   0.998748943   0.000000000
   0.000000000   0.000000000   0.998749155

ATOMIC_POSITIONS (crystal)
Al1      0.000000000   0.000000000   0.000000000
Al2      0.500000000   0.500000000   0.000000000
Al3      0.500000000   0.000000000   0.500000000
Al4      0.000000000   0.500000000   0.500000000
End final coordinates



     A final scf calculation at the relaxed structure.
     The G-vectors are recalculated for the final unit cell
     Results may differ from those at the preceding step.

   Info: using nr1, nr2, nr3 values from input

   Info: using nr1, nr2, nr3 values from input

     Parallelization info
     --------------------
     sticks:   dense  smooth     PW     G-vecs:    dense   smooth      PW
     Min         233     163     49                 5311     3073     527
     Max         234     165     50                 5313     3074     528
     Sum         933     657    197                21247    12293    2109



     bravais-lattice index     =            0
     lattice parameter (alat)  =       7.6300  a.u.
     unit-cell volume          =     442.5300 (a.u.)^3
     number of atoms/cell      =            4
     number of atomic types    =            4
     number of electrons       =        12.00
     number of Kohn-Sham states=           10
     kinetic-energy cutoff     =      35.0000  Ry
     charge density cutoff     =     200.0000  Ry
     convergence threshold     =      1.0E-08
     mixing beta               =       0.3000
     number of iterations used =           10  TF        mixing
     Exchange-correlation      =  SLA  PW   PBX  PBC ( 1  4  3  4 0 0)

     celldm(1)=   7.630000  celldm(2)=   0.000000  celldm(3)=   0.000000
     celldm(4)=   0.000000  celldm(5)=   0.000000  celldm(6)=   0.000000

     crystal axes: (cart. coord. in units of alat)
               a(1) = (   0.998749   0.000000   0.000000 )  
               a(2) = (   0.000000   0.998749   0.000000 )  
               a(3) = (   0.000000   0.000000   0.998749 )  

     reciprocal axes: (cart. coord. in units 2 pi/alat)
               b(1) = (  1.001253  0.000000  0.000000 )  
               b(2) = (  0.000000  1.001253  0.000000 )  
               b(3) = (  0.000000  0.000000  1.001252 )  


     PseudoPot. # 1 for Al read from file:
     /home/ben/espresso/pp/Al.pbe-nl-kjpaw_psl.1.0.0.UPF
     MD5 check sum: 339dbea23cf3ab9a065ad45c0f9085d7
     Pseudo is Projector augmented-wave + core cor, Zval =  3.0
     Generated using "atomic" code by A. Dal Corso  v.5.1
     Shape of augmentation charge: PSQ
     Using radial grid of 1135 points,  4 beta functions with: 
                l(1) =   0
                l(2) =   0
                l(3) =   1
                l(4) =   1
     Q(r) pseudized with 0 coefficients 


     PseudoPot. # 2 for Al read from file:
     /home/ben/espresso/pp/Al.pbe-nl-kjpaw_psl.1.0.0.UPF
     MD5 check sum: 339dbea23cf3ab9a065ad45c0f9085d7
     Pseudo is Projector augmented-wave + core cor, Zval =  3.0
     Generated using "atomic" code by A. Dal Corso  v.5.1
     Shape of augmentation charge: PSQ
     Using radial grid of 1135 points,  4 beta functions with: 
                l(1) =   0
                l(2) =   0
                l(3) =   1
                l(4) =   1
     Q(r) pseudized with 0 coefficients 


     PseudoPot. # 3 for Al read from file:
     /home/ben/espresso/pp/Al.pbe-nl-kjpaw_psl.1.0.0.UPF
     MD5 check sum: 339dbea23cf3ab9a065ad45c0f9085d7
     Pseudo is Projector augmented-wave + core cor, Zval =  3.0
     Generated using "atomic" code by A. Dal Corso  v.5.1
     Shape of augmentation charge: PSQ
     Using radial grid of 1135 points,  4 beta functions with: 
                l(1) =   0
                l(2) =   0
                l(3) =   1
                l(4) =   1
     Q(r) pseudized with 0 coefficients 


     PseudoPot. # 4 for Al read from file:
     /home/ben/espresso/pp/Al.pbe-nl-kjpaw_psl.1.0.0.UPF
     MD5 check sum: 339dbea23cf3ab9a065ad45c0f9085d7
     Pseudo is Projector augmented-wave + core cor, Zval =  3.0
     Generated using "atomic" code by A. Dal Corso  v.5.1
     Shape of augmentation charge: PSQ
     Using radial grid of 1135 points,  4 beta functions with: 
                l(1) =   0
                l(2) =   0
                l(3) =   1
                l(4) =   1
     Q(r) pseudized with 0 coefficients 


     atomic species   valence    mass     pseudopotential
        Al1            3.00    26.98200     Al( 1.00)
        Al2            3.00    26.98200     Al( 1.00)
        Al3            3.00    26.98200     Al( 1.00)
        Al4            3.00    26.98200     Al( 1.00)

      8 Sym. Ops., with inversion, found



   Cartesian axes

     site n.     atom                  positions (alat units)
         1           Al1 tau(   1) = (   0.0000000   0.0000000   0.0000000  )
         2           Al2 tau(   2) = (   0.4993745   0.4993745   0.0000000  )
         3           Al3 tau(   3) = (   0.4993745   0.0000000   0.4993746  )
         4           Al4 tau(   4) = (   0.0000000   0.4993745   0.4993746  )

     number of k points=    64  Marzari-Vanderbilt smearing, width (Ry)=  0.0200
                       cart. coord. in units 2pi/alat
        k(    1) = (   0.0715180   0.0715180   0.0715180), wk =   0.0466472
        k(    2) = (   0.0715180   0.0715180   0.2145541), wk =   0.0466472
        k(    3) = (   0.0715180   0.0715180   0.3575901), wk =   0.0466472
        k(    4) = (   0.0715180   0.0715180  -0.5006262), wk =   0.0233236
        k(    5) = (   0.0715180   0.2145541   0.2145541), wk =   0.0466472
        k(    6) = (   0.0715180   0.2145541   0.3575901), wk =   0.0466472
        k(    7) = (   0.0715180   0.2145541  -0.5006262), wk =   0.0233236
        k(    8) = (   0.0715180   0.3575902   0.3575901), wk =   0.0466472
        k(    9) = (   0.0715180   0.3575902  -0.5006262), wk =   0.0233236
        k(   10) = (   0.0715180  -0.5006263  -0.5006262), wk =   0.0116618
        k(   11) = (   0.2145541   0.2145541   0.2145541), wk =   0.0466472
        k(   12) = (   0.2145541   0.2145541   0.3575901), wk =   0.0466472
        k(   13) = (   0.2145541   0.2145541  -0.5006262), wk =   0.0233236
        k(   14) = (   0.2145541   0.3575902   0.3575901), wk =   0.0466472
        k(   15) = (   0.2145541   0.3575902  -0.5006262), wk =   0.0233236
        k(   16) = (   0.2145541  -0.5006263  -0.5006262), wk =   0.0116618
        k(   17) = (   0.3575902   0.3575902   0.3575901), wk =   0.0466472
        k(   18) = (   0.3575902   0.3575902  -0.5006262), wk =   0.0233236
        k(   19) = (   0.3575902  -0.5006263  -0.5006262), wk =   0.0116618
        k(   20) = (  -0.5006263  -0.5006263  -0.5006262), wk =   0.0058309
        k(   21) = (   0.2145541  -0.0715180   0.0715180), wk =   0.0466472
        k(   22) = (  -0.0715180   0.2145541   0.0715180), wk =   0.0466472
        k(   23) = (   0.3575902  -0.0715180   0.0715180), wk =   0.0466472
        k(   24) = (  -0.0715180   0.3575902   0.0715180), wk =   0.0466472
        k(   25) = (  -0.5006263  -0.0715180   0.0715180), wk =   0.0233236
        k(   26) = (  -0.0715180  -0.5006263   0.0715180), wk =   0.0233236
        k(   27) = (   0.2145541  -0.2145541   0.0715180), wk =   0.0466472
        k(   28) = (   0.2145541   0.0715180   0.2145541), wk =   0.0466472
        k(   29) = (   0.3575902  -0.2145541   0.0715180), wk =   0.0466472
        k(   30) = (  -0.0715180   0.3575902   0.2145541), wk =   0.0466472
        k(   31) = (   0.2145541   0.3575902   0.0715180), wk =   0.0466472
        k(   32) = (   0.3575902   0.0715180   0.2145541), wk =   0.0466472
        k(   33) = (   0.2145541   0.0715180  -0.3575901), wk =   0.0466472
        k(   34) = (  -0.5006263  -0.2145541   0.0715180), wk =   0.0233236
        k(   35) = (  -0.0715180  -0.5006263   0.2145541), wk =   0.0233236
        k(   36) = (   0.2145541  -0.5006263   0.0715180), wk =   0.0233236
        k(   37) = (  -0.5006263   0.0715180   0.2145541), wk =   0.0233236
        k(   38) = (   0.2145541   0.0715180   0.5006262), wk =   0.0233236
        k(   39) = (   0.3575902  -0.3575902   0.0715180), wk =   0.0466472
        k(   40) = (   0.3575902   0.0715180   0.3575901), wk =   0.0466472
        k(   41) = (  -0.5006263  -0.3575902   0.0715180), wk =   0.0233236
        k(   42) = (  -0.0715180  -0.5006263   0.3575901), wk =   0.0233236
        k(   43) = (   0.3575902  -0.5006263   0.0715180), wk =   0.0233236
        k(   44) = (  -0.5006263   0.0715180   0.3575901), wk =   0.0233236
        k(   45) = (   0.3575902   0.0715180   0.5006262), wk =   0.0233236
        k(   46) = (  -0.5006263   0.5006263   0.0715180), wk =   0.0116618
        k(   47) = (  -0.5006263   0.0715180  -0.5006262), wk =   0.0116618
        k(   48) = (   0.3575902  -0.2145541   0.2145541), wk =   0.0466472
        k(   49) = (  -0.2145541   0.3575902   0.2145541), wk =   0.0466472
        k(   50) = (  -0.5006263  -0.2145541   0.2145541), wk =   0.0233236
        k(   51) = (  -0.2145541  -0.5006263   0.2145541), wk =   0.0233236
        k(   52) = (   0.3575902  -0.3575902   0.2145541), wk =   0.0466472
        k(   53) = (   0.3575902   0.2145541   0.3575901), wk =   0.0466472
        k(   54) = (  -0.5006263  -0.3575902   0.2145541), wk =   0.0233236
        k(   55) = (  -0.2145541  -0.5006263   0.3575901), wk =   0.0233236
        k(   56) = (   0.3575902  -0.5006263   0.2145541), wk =   0.0233236
        k(   57) = (  -0.5006263   0.2145541   0.3575901), wk =   0.0233236
        k(   58) = (   0.3575902   0.2145541   0.5006262), wk =   0.0233236
        k(   59) = (  -0.5006263   0.5006263   0.2145541), wk =   0.0116618
        k(   60) = (  -0.5006263   0.2145541  -0.5006262), wk =   0.0116618
        k(   61) = (  -0.5006263  -0.3575902   0.3575901), wk =   0.0233236
        k(   62) = (  -0.3575902  -0.5006263   0.3575901), wk =   0.0233236
        k(   63) = (  -0.5006263   0.5006263   0.3575901), wk =   0.0116618
        k(   64) = (  -0.5006263   0.3575902  -0.5006262), wk =   0.0116618

     Dense  grid:    21247 G-vectors     FFT dimensions: (  36,  36,  36)

     Smooth grid:    12293 G-vectors     FFT dimensions: (  30,  30,  30)

     Estimated max dynamical RAM per process >       8.02Mb

     Estimated total allocated dynamical RAM >      32.08Mb

     Initial potential from superposition of free atoms

     starting charge   11.99084, renormalised to   12.00000
     Starting wfc are   16 randomized atomic wfcs
     Checking if some PAW data can be deallocated... 

     Writing output data file template.save

     total cpu time spent up to now is       67.5 secs

     per-process dynamical memory:    26.0 Mb

     Self-consistent Calculation

     iteration #  1     ecut=    35.00 Ry     beta=0.30
     Davidson diagonalization with overlap
     c_bands:  2 eigenvalues not converged
     c_bands:  1 eigenvalues not converged
     c_bands:  2 eigenvalues not converged
     c_bands:  2 eigenvalues not converged
     c_bands:  1 eigenvalues not converged
     ethr =  1.00E-06,  avg # of iterations = 12.2

     total cpu time spent up to now is       72.0 secs

     total energy              =    -158.01033305 Ry
     Harris-Foulkes estimate   =    -158.01241253 Ry
     estimated scf accuracy    <       0.02309768 Ry

     iteration #  2     ecut=    35.00 Ry     beta=0.30
     Davidson diagonalization with overlap
     ethr =  1.92E-04,  avg # of iterations =  1.0

     total cpu time spent up to now is       73.2 secs

     total energy              =    -158.00581070 Ry
     Harris-Foulkes estimate   =    -158.01034893 Ry
     estimated scf accuracy    <       0.01447642 Ry

     iteration #  3     ecut=    35.00 Ry     beta=0.30
     Davidson diagonalization with overlap
     ethr =  1.21E-04,  avg # of iterations =  1.0

     total cpu time spent up to now is       74.4 secs

     total energy              =    -158.00613084 Ry
     Harris-Foulkes estimate   =    -158.00607835 Ry
     estimated scf accuracy    <       0.00003670 Ry

     iteration #  4     ecut=    35.00 Ry     beta=0.30
     Davidson diagonalization with overlap
     ethr =  3.06E-07,  avg # of iterations =  3.2

     total cpu time spent up to now is       76.3 secs

     total energy              =    -158.00620418 Ry
     Harris-Foulkes estimate   =    -158.00620436 Ry
     estimated scf accuracy    <       0.00000091 Ry

     iteration #  5     ecut=    35.00 Ry     beta=0.30
     Davidson diagonalization with overlap
     ethr =  7.55E-09,  avg # of iterations =  2.1

     total cpu time spent up to now is       80.6 secs

     total energy              =    -158.00620404 Ry
     Harris-Foulkes estimate   =    -158.00620427 Ry
     estimated scf accuracy    <       0.00000063 Ry

     iteration #  6     ecut=    35.00 Ry     beta=0.30
     Davidson diagonalization with overlap
     ethr =  5.26E-09,  avg # of iterations =  1.0

     total cpu time spent up to now is       85.1 secs

     total energy              =    -158.00620404 Ry
     Harris-Foulkes estimate   =    -158.00620407 Ry
     estimated scf accuracy    <       0.00000004 Ry

     iteration #  7     ecut=    35.00 Ry     beta=0.30
     Davidson diagonalization with overlap
     ethr =  2.96E-10,  avg # of iterations =  2.3

     total cpu time spent up to now is       90.0 secs

     End of self-consistent calculation

          k = 0.0715 0.0715 0.0715 (  1539 PWs)   bands (ev):

    -3.0740   4.4172   4.4172   4.4172   7.2363   7.2363   7.2363  11.5846
    11.5846  11.5846

          k = 0.0715 0.0715 0.2146 (  1530 PWs)   bands (ev):

    -2.7032   2.3778   4.7650   4.7650   7.5780   7.5781   9.6251   9.6251
     9.9129  11.9306

          k = 0.0715 0.0715 0.3576 (  1537 PWs)   bands (ev):

    -1.9645   0.5897   5.4575   5.4575   7.8163   7.8163   8.3631   8.3631
    10.8263  10.8263

          k = 0.0715 0.0715-0.5006 (  1544 PWs)   bands (ev):

    -0.8636  -0.8636   6.3931   6.3931   6.6024   6.6024   9.0304   9.0304
     9.7799   9.7800

          k = 0.0715 0.2146 0.2146 (  1543 PWs)   bands (ev):

    -2.3334   2.7341   2.7342   5.1107   7.5239   8.0950   9.8729   9.8729
    10.3351  10.3351

          k = 0.0715 0.2146 0.3576 (  1546 PWs)   bands (ev):

    -1.5965   0.9511   3.4440   5.7241   5.9894   8.2299   8.6869  10.6255
    10.7288  11.3841

          k = 0.0715 0.2146-0.5006 (  1548 PWs)   bands (ev):

    -0.4985  -0.4985   4.5000   4.5000   6.8579   6.8579   9.7028   9.7028
    11.6555  11.6555

          k = 0.0715 0.3576 0.3576 (  1559 PWs)   bands (ev):

    -0.8635   1.6712   1.6712   4.1577   6.5137   8.9238   8.9238   9.3840
    11.3241  11.7536

          k = 0.0715 0.3576-0.5006 (  1554 PWs)   bands (ev):

     0.2290   0.2290   2.7440   2.7440   7.5483   7.5483   9.9562   9.9562
    10.4169  10.4169

          k = 0.0715-0.5006-0.5006 (  1556 PWs)   bands (ev):

     1.3132   1.3132   1.3132   1.3132   8.5830   8.5830   8.5830   8.5830
    11.4472  11.4472

          k = 0.2146 0.2146 0.2146 (  1541 PWs)   bands (ev):

    -1.9645   3.0894   3.0894   3.0895   7.9836   7.9836   7.9836  10.6412
    10.6413  10.6413

          k = 0.2146 0.2146 0.3576 (  1547 PWs)   bands (ev):

    -1.2295   1.3116   3.7958   3.7958   6.2706   6.2706   8.6837  11.0896
    11.3103  11.3104

          k = 0.2146 0.2146-0.5006 (  1542 PWs)   bands (ev):

    -0.1343  -0.1343   4.7218   4.7218   5.0048   5.0048   9.7203   9.7203
    12.0811  12.0811

          k = 0.2146 0.3576 0.3576 (  1545 PWs)   bands (ev):

    -0.4983   2.0298   2.0298   4.3793   4.6550   6.9678   6.9678   9.3910
    12.0038  14.1258

          k = 0.2146 0.3576-0.5006 (  1544 PWs)   bands (ev):

     0.5915   0.5915   3.0986   3.0986   5.5756   5.5756   8.0110   8.0110
    13.0035  13.0035

          k = 0.2146-0.5006-0.5006 (  1552 PWs)   bands (ev):

     1.6729   1.6729   1.6729   1.6729   6.6227   6.6227   6.6227   6.6227
    14.0105  14.0106

          k = 0.3576 0.3576 0.3576 (  1541 PWs)   bands (ev):

     0.2293   2.7433   2.7433   2.7433   5.2358   5.2358   5.2358   7.6783
    14.9991  14.9992

          k = 0.3576 0.3576-0.5006 (  1546 PWs)   bands (ev):

     1.3136   1.3136   3.6929   3.6929   3.9432   3.9432   6.2863   6.2863
    15.7982  15.7982

          k = 0.3576-0.5006-0.5006 (  1544 PWs)   bands (ev):

     2.3886   2.3886   2.3886   2.3886   4.8858   4.8858   4.8858   4.8858
    16.8771  16.8771

          k =-0.5006-0.5006-0.5006 (  1568 PWs)   bands (ev):

     3.3489   3.3489   3.3489   3.3489   3.5816   3.5816   3.5816   3.5816
    19.4356  19.4357

          k = 0.2146-0.0715 0.0715 (  1530 PWs)   bands (ev):

    -2.7032   2.3778   4.7650   4.7650   7.5780   7.5781   9.6251   9.6251
     9.9129  11.9306

          k =-0.0715 0.2146 0.0715 (  1530 PWs)   bands (ev):

    -2.7032   2.3778   4.7650   4.7650   7.5780   7.5781   9.6251   9.6251
     9.9129  11.9306

          k = 0.3576-0.0715 0.0715 (  1537 PWs)   bands (ev):

    -1.9645   0.5897   5.4575   5.4575   7.8163   7.8163   8.3631   8.3631
    10.8263  10.8263

          k =-0.0715 0.3576 0.0715 (  1537 PWs)   bands (ev):

    -1.9644   0.5897   5.4575   5.4575   7.8163   7.8163   8.3631   8.3631
    10.8263  10.8264

          k =-0.5006-0.0715 0.0715 (  1544 PWs)   bands (ev):

    -0.8636  -0.8636   6.3931   6.3931   6.6024   6.6024   9.0304   9.0304
     9.7799   9.7800

          k =-0.0715-0.5006 0.0715 (  1544 PWs)   bands (ev):

    -0.8637  -0.8636   6.3931   6.3931   6.6024   6.6024   9.0304   9.0304
     9.7799   9.7800

          k = 0.2146-0.2146 0.0715 (  1543 PWs)   bands (ev):

    -2.3334   2.7341   2.7342   5.1107   7.5239   8.0950   9.8729   9.8729
    10.3351  10.3351

          k = 0.2146 0.0715 0.2146 (  1543 PWs)   bands (ev):

    -2.3334   2.7341   2.7342   5.1107   7.5239   8.0950   9.8729   9.8730
    10.3351  10.3351

          k = 0.3576-0.2146 0.0715 (  1546 PWs)   bands (ev):

    -1.5965   0.9511   3.4440   5.7241   5.9894   8.2299   8.6869  10.6255
    10.7288  11.3841

          k =-0.0715 0.3576 0.2146 (  1546 PWs)   bands (ev):

    -1.5965   0.9511   3.4440   5.7241   5.9894   8.2299   8.6869  10.6255
    10.7288  11.3841

          k = 0.2146 0.3576 0.0715 (  1546 PWs)   bands (ev):

    -1.5965   0.9511   3.4440   5.7241   5.9894   8.2299   8.6869  10.6255
    10.7288  11.3841

          k = 0.3576 0.0715 0.2146 (  1546 PWs)   bands (ev):

    -1.5965   0.9511   3.4440   5.7241   5.9894   8.2299   8.6869  10.6255
    10.7288  11.3841

          k = 0.2146 0.0715-0.3576 (  1546 PWs)   bands (ev):

    -1.5965   0.9511   3.4440   5.7241   5.9894   8.2299   8.6869  10.6255
    10.7288  11.3841

          k =-0.5006-0.2146 0.0715 (  1548 PWs)   bands (ev):

    -0.4985  -0.4985   4.5000   4.5000   6.8579   6.8579   9.7028   9.7028
    11.6555  11.6555

          k =-0.0715-0.5006 0.2146 (  1548 PWs)   bands (ev):

    -0.4985  -0.4985   4.4999   4.5000   6.8579   6.8579   9.7028   9.7028
    11.6555  11.6555

          k = 0.2146-0.5006 0.0715 (  1548 PWs)   bands (ev):

    -0.4985  -0.4985   4.4999   4.5000   6.8579   6.8579   9.7028   9.7028
    11.6555  11.6555

          k =-0.5006 0.0715 0.2146 (  1548 PWs)   bands (ev):

    -0.4985  -0.4985   4.5000   4.5000   6.8579   6.8579   9.7028   9.7028
    11.6555  11.6555

          k = 0.2146 0.0715 0.5006 (  1548 PWs)   bands (ev):

    -0.4985  -0.4985   4.5000   4.5000   6.8579   6.8579   9.7028   9.7028
    11.6555  11.6555

          k = 0.3576-0.3576 0.0715 (  1559 PWs)   bands (ev):

    -0.8635   1.6712   1.6712   4.1577   6.5137   8.9238   8.9238   9.3840
    11.3241  11.7535

          k = 0.3576 0.0715 0.3576 (  1559 PWs)   bands (ev):

    -0.8635   1.6712   1.6712   4.1577   6.5137   8.9238   8.9238   9.3840
    11.3241  11.7536

          k =-0.5006-0.3576 0.0715 (  1554 PWs)   bands (ev):

     0.2290   0.2290   2.7440   2.7440   7.5483   7.5483   9.9561   9.9562
    10.4169  10.4169

          k =-0.0715-0.5006 0.3576 (  1554 PWs)   bands (ev):

     0.2290   0.2290   2.7440   2.7440   7.5483   7.5483   9.9561   9.9562
    10.4169  10.4169

          k = 0.3576-0.5006 0.0715 (  1554 PWs)   bands (ev):

     0.2290   0.2290   2.7440   2.7440   7.5483   7.5483   9.9561   9.9562
    10.4168  10.4169

          k =-0.5006 0.0715 0.3576 (  1554 PWs)   bands (ev):

     0.2290   0.2290   2.7440   2.7440   7.5483   7.5483   9.9561   9.9562
    10.4169  10.4169

          k = 0.3576 0.0715 0.5006 (  1554 PWs)   bands (ev):

     0.2290   0.2290   2.7440   2.7440   7.5483   7.5483   9.9562   9.9562
    10.4169  10.4169

          k =-0.5006 0.5006 0.0715 (  1556 PWs)   bands (ev):

     1.3132   1.3132   1.3132   1.3132   8.5830   8.5830   8.5830   8.5830
    11.4472  11.4472

          k =-0.5006 0.0715-0.5006 (  1556 PWs)   bands (ev):

     1.3132   1.3132   1.3132   1.3132   8.5830   8.5830   8.5830   8.5830
    11.4472  11.4472

          k = 0.3576-0.2146 0.2146 (  1547 PWs)   bands (ev):

    -1.2295   1.3116   3.7958   3.7958   6.2706   6.2706   8.6837  11.0896
    11.3103  11.3104

          k =-0.2146 0.3576 0.2146 (  1547 PWs)   bands (ev):

    -1.2295   1.3116   3.7958   3.7959   6.2706   6.2706   8.6837  11.0896
    11.3103  11.3104

          k =-0.5006-0.2146 0.2146 (  1542 PWs)   bands (ev):

    -0.1343  -0.1343   4.7218   4.7218   5.0048   5.0048   9.7203   9.7203
    12.0811  12.0811

          k =-0.2146-0.5006 0.2146 (  1542 PWs)   bands (ev):

    -0.1343  -0.1343   4.7218   4.7218   5.0048   5.0049   9.7203   9.7203
    12.0811  12.0811

          k = 0.3576-0.3576 0.2146 (  1545 PWs)   bands (ev):

    -0.4983   2.0298   2.0298   4.3793   4.6550   6.9678   6.9678   9.3910
    12.0038  14.1258

          k = 0.3576 0.2146 0.3576 (  1545 PWs)   bands (ev):

    -0.4983   2.0298   2.0298   4.3793   4.6550   6.9678   6.9678   9.3910
    12.0038  14.1258

          k =-0.5006-0.3576 0.2146 (  1544 PWs)   bands (ev):

     0.5915   0.5915   3.0985   3.0986   5.5756   5.5756   8.0110   8.0110
    13.0035  13.0035

          k =-0.2146-0.5006 0.3576 (  1544 PWs)   bands (ev):

     0.5915   0.5915   3.0985   3.0986   5.5756   5.5756   8.0110   8.0110
    13.0035  13.0035

          k = 0.3576-0.5006 0.2146 (  1544 PWs)   bands (ev):

     0.5915   0.5915   3.0985   3.0986   5.5756   5.5756   8.0110   8.0110
    13.0035  13.0035

          k =-0.5006 0.2146 0.3576 (  1544 PWs)   bands (ev):

     0.5915   0.5915   3.0985   3.0986   5.5756   5.5756   8.0110   8.0110
    13.0035  13.0035

          k = 0.3576 0.2146 0.5006 (  1544 PWs)   bands (ev):

     0.5915   0.5915   3.0986   3.0986   5.5756   5.5756   8.0110   8.0110
    13.0035  13.0035

          k =-0.5006 0.5006 0.2146 (  1552 PWs)   bands (ev):

     1.6729   1.6729   1.6729   1.6729   6.6227   6.6227   6.6227   6.6227
    14.0105  14.0105

          k =-0.5006 0.2146-0.5006 (  1552 PWs)   bands (ev):

     1.6729   1.6729   1.6729   1.6729   6.6227   6.6227   6.6227   6.6227
    14.0105  14.0106

          k =-0.5006-0.3576 0.3576 (  1546 PWs)   bands (ev):

     1.3136   1.3136   3.6929   3.6929   3.9432   3.9432   6.2863   6.2863
    15.7982  15.7982

          k =-0.3576-0.5006 0.3576 (  1546 PWs)   bands (ev):

     1.3136   1.3136   3.6929   3.6929   3.9432   3.9432   6.2863   6.2863
    15.7982  16.1020

          k =-0.5006 0.5006 0.3576 (  1544 PWs)   bands (ev):

     2.3886   2.3886   2.3886   2.3886   4.8858   4.8858   4.8858   4.8858
    16.8771  16.8771

          k =-0.5006 0.3576-0.5006 (  1544 PWs)   bands (ev):

     2.3886   2.3886   2.3886   2.3886   4.8858   4.8858   4.8858   4.8858
    16.8771  16.8771

     the Fermi energy is     7.9579 ev

!    total energy              =    -158.00620400 Ry
     Harris-Foulkes estimate   =    -158.00620404 Ry
     estimated scf accuracy    <          7.5E-09 Ry

     total all-electron energy =     -1942.577332 Ry

     The total energy is the sum of the following terms:

     one-electron contribution =      12.71374034 Ry
     hartree contribution      =       0.02406884 Ry
     xc contribution           =     -10.37532318 Ry
     ewald contribution        =     -21.65947168 Ry
     one-center paw contrib.   =    -138.70940208 Ry
     smearing contrib. (-TS)   =       0.00018376 Ry

     convergence has been achieved in   7 iterations

     Forces acting on atoms (Ry/au):

     atom    1 type  1   force =     0.00000000    0.00000000    0.00000000
     atom    2 type  2   force =     0.00000000    0.00000000    0.00000000
     atom    3 type  3   force =     0.00000000    0.00000000    0.00000000
     atom    4 type  4   force =     0.00000000    0.00000000    0.00000000

     Total force =     0.000000     Total SCF correction =     0.000000


     entering subroutine stress ...

          total   stress  (Ry/bohr**3)                   (kbar)     P=   -0.15
  -0.00000103   0.00000000   0.00000000         -0.15      0.00      0.00
   0.00000000  -0.00000103   0.00000000          0.00     -0.15      0.00
   0.00000000   0.00000000  -0.00000103          0.00      0.00     -0.15


     Writing output data file template.save

     init_run     :      5.49s CPU      5.55s WALL (       2 calls)
     electrons    :     51.48s CPU     52.34s WALL (       4 calls)
     update_pot   :      6.98s CPU      6.99s WALL (       2 calls)
     forces       :      8.66s CPU      8.79s WALL (       4 calls)
     stress       :     16.33s CPU     16.72s WALL (       4 calls)

     Called by init_run:
     wfcinit      :      1.52s CPU      1.54s WALL (       2 calls)
     potinit      :      0.94s CPU      0.95s WALL (       2 calls)

     Called by electrons:
     c_bands      :     41.15s CPU     41.82s WALL (      20 calls)
     sum_band     :      7.93s CPU      8.08s WALL (      20 calls)
     v_of_rho     :      0.36s CPU      0.36s WALL (      21 calls)
     newd         :      0.44s CPU      0.45s WALL (      21 calls)
     PAW_pot      :      2.31s CPU      2.33s WALL (      23 calls)
     mix_rho      :      0.04s CPU      0.04s WALL (      20 calls)

     Called by c_bands:
     init_us_2    :      1.13s CPU      1.08s WALL (    3328 calls)
     cegterg      :     39.96s CPU     40.63s WALL (    1280 calls)

     Called by sum_band:
     sum_band:bec :      0.01s CPU      0.02s WALL (    1408 calls)
     addusdens    :      0.54s CPU      0.54s WALL (      20 calls)

     Called by *egterg:
     h_psi        :     36.68s CPU     37.18s WALL (    4773 calls)
     s_psi        :      0.60s CPU      0.64s WALL (    4773 calls)
     g_psi        :      0.09s CPU      0.09s WALL (    3365 calls)
     cdiaghg      :      1.32s CPU      1.36s WALL (    4325 calls)

     Called by h_psi:
     h_psi:pot    :     36.57s CPU     37.08s WALL (    4773 calls)
     h_psi:calbec :      0.96s CPU      0.99s WALL (    4773 calls)
     vloc_psi     :     34.91s CPU     35.38s WALL (    4773 calls)
     add_vuspsi   :      0.66s CPU      0.70s WALL (    4773 calls)

     General routines
     calbec       :      1.65s CPU      1.75s WALL (    7461 calls)
     fft          :      0.58s CPU      0.57s WALL (     434 calls)
     ffts         :      0.02s CPU      0.03s WALL (      41 calls)
     fftw         :     39.41s CPU     40.06s WALL (   87608 calls)
     interpolate  :      0.06s CPU      0.06s WALL (      41 calls)
     davcio       :      0.00s CPU      0.01s WALL (     128 calls)

     Parallel routines
     fft_scatter  :      8.82s CPU      8.75s WALL (   88083 calls)

     PWSCF        :  1m31.00s CPU     1m32.66s WALL


   This run was terminated on:  13:29:44   9Jun2017            

=------------------------------------------------------------------------------=
   JOB DONE.
=------------------------------------------------------------------------------=
