
     Program PWSCF v.6.0 (svn rev. 13079) starts on  9Jun2017 at 12:47:58 

     This program is part of the open-source Quantum ESPRESSO suite
     for quantum simulation of materials; please cite
         "P. Giannozzi et al., J. Phys.:Condens. Matter 21 395502 (2009);
          URL http://www.quantum-espresso.org", 
     in publications or presentations arising from this work. More details at
     http://www.quantum-espresso.org/quote

     Parallel version (MPI), running on     4 processors
     R & G space division:  proc/nbgrp/npool/nimage =       4
     Waiting for input...
     Reading input from standard input
Warning: card &IONS ignored
Warning: card ION_DYNAMICS='BFGS', ignored
Warning: card / ignored
Warning: card &CELL ignored
Warning: card CELL_DYNAMICS='BFGS', ignored
Warning: card PRESS = 0.0, ignored
Warning: card CELL_FACTOR = 2.0, ignored
Warning: card / ignored

     Current dimensions of program PWSCF are:
     Max number of different atomic species (ntypx) = 10
     Max number of k-points (npk) =  40000
     Max angular momentum in pseudopotentials (lmaxx) =  3
               file C.pbe-n-kjpaw_psl.1.0.0.UPF: wavefunction(s)  2S 2P renormalized

     Subspace diagonalization in iterative solution of the eigenvalue problem:
     a serial algorithm will be used

     Found symmetry operation: I + ( -0.5000 -0.5000  0.0000)
     This is a supercell, fractional translations are disabled

     Parallelization info
     --------------------
     sticks:   dense  smooth     PW     G-vecs:    dense   smooth      PW
     Min         165     114     34                 3139     1812     308
     Max         167     115     35                 3140     1813     311
     Sum         665     457    137                12557     7249    1237



     bravais-lattice index     =            0
     lattice parameter (alat)  =       6.7508  a.u.
     unit-cell volume          =     263.7798 (a.u.)^3
     number of atoms/cell      =            8
     number of atomic types    =            1
     number of electrons       =        32.00
     number of Kohn-Sham states=           20
     kinetic-energy cutoff     =      35.0000  Ry
     charge density cutoff     =     200.0000  Ry
     convergence threshold     =      1.0E-06
     mixing beta               =       0.3000
     number of iterations used =           10  TF        mixing
     Exchange-correlation      =  SLA  PW   PBX  PBC ( 1  4  3  4 0 0)

     celldm(1)=   6.750826  celldm(2)=   0.000000  celldm(3)=   0.000000
     celldm(4)=   0.000000  celldm(5)=   0.000000  celldm(6)=   0.000000

     crystal axes: (cart. coord. in units of alat)
               a(1) = (   0.950000   0.000000   0.000000 )  
               a(2) = (   0.000000   0.950000   0.000000 )  
               a(3) = (   0.000000   0.000000   0.950000 )  

     reciprocal axes: (cart. coord. in units 2 pi/alat)
               b(1) = (  1.052632  0.000000  0.000000 )  
               b(2) = (  0.000000  1.052632  0.000000 )  
               b(3) = (  0.000000  0.000000  1.052632 )  


     PseudoPot. # 1 for  C read from file:
     /home/ben/espresso/pp/C.pbe-n-kjpaw_psl.1.0.0.UPF
     MD5 check sum: 151efd6a948e5eaef53e53bb29d01b27
     Pseudo is Projector augmented-wave + core cor, Zval =  4.0
     Generated using "atomic" code by A. Dal Corso  v.5.1
     Shape of augmentation charge: PSQ
     Using radial grid of 1073 points,  4 beta functions with: 
                l(1) =   0
                l(2) =   0
                l(3) =   1
                l(4) =   1
     Q(r) pseudized with 0 coefficients 


     atomic species   valence    mass     pseudopotential
        C              4.00    12.00000      C( 1.00)

     24 Sym. Ops. (no inversion) found



   Cartesian axes

     site n.     atom                  positions (alat units)
         1           C   tau(   1) = (   0.0000000   0.0000000   0.0000000  )
         2           C   tau(   2) = (   0.4750000   0.4750000   0.0000000  )
         3           C   tau(   3) = (   0.4750000   0.0000000   0.4750000  )
         4           C   tau(   4) = (   0.0000000   0.4750000   0.4750000  )
         5           C   tau(   5) = (   0.2375000   0.2375000   0.2375000  )
         6           C   tau(   6) = (   0.7125000   0.7125000   0.2375000  )
         7           C   tau(   7) = (   0.2375000   0.7125000   0.7125000  )
         8           C   tau(   8) = (   0.7125000   0.2375000   0.7125000  )

     number of k points=     4  Marzari-Vanderbilt smearing, width (Ry)=  0.0200
                       cart. coord. in units 2pi/alat
        k(    1) = (   0.1315789   0.1315789   0.1315789), wk =   0.2500000
        k(    2) = (   0.1315789   0.1315789   0.3947368), wk =   0.7500000
        k(    3) = (   0.1315789   0.3947368   0.3947368), wk =   0.7500000
        k(    4) = (   0.3947368   0.3947368   0.3947368), wk =   0.2500000

     Dense  grid:    12557 G-vectors     FFT dimensions: (  30,  30,  30)

     Smooth grid:     7249 G-vectors     FFT dimensions: (  25,  25,  25)

     Estimated max dynamical RAM per process >       3.29Mb

     Estimated total allocated dynamical RAM >      13.14Mb

     Check: negative/imaginary core charge=   -0.000083    0.000000

     Initial potential from superposition of free atoms

     starting charge   31.99967, renormalised to   32.00000
     Starting wfc are   32 randomized atomic wfcs
     Checking if some PAW data can be deallocated... 

     total cpu time spent up to now is        1.7 secs

     per-process dynamical memory:    16.2 Mb

     Self-consistent Calculation

     iteration #  1     ecut=    35.00 Ry     beta=0.30
     Davidson diagonalization with overlap
     ethr =  1.00E-02,  avg # of iterations =  2.5

     total cpu time spent up to now is        2.6 secs

     total energy              =    -147.48119255 Ry
     Harris-Foulkes estimate   =    -147.60703185 Ry
     estimated scf accuracy    <       0.65122568 Ry

     iteration #  2     ecut=    35.00 Ry     beta=0.30
     Davidson diagonalization with overlap
     ethr =  2.04E-03,  avg # of iterations =  1.0

     total cpu time spent up to now is        3.2 secs

     total energy              =    -147.29215343 Ry
     Harris-Foulkes estimate   =    -147.48544035 Ry
     estimated scf accuracy    <       0.38030277 Ry

     iteration #  3     ecut=    35.00 Ry     beta=0.30
     Davidson diagonalization with overlap
     ethr =  1.19E-03,  avg # of iterations =  3.0

     total cpu time spent up to now is        3.9 secs

     total energy              =    -147.33125940 Ry
     Harris-Foulkes estimate   =    -147.32794819 Ry
     estimated scf accuracy    <       0.00334689 Ry

     iteration #  4     ecut=    35.00 Ry     beta=0.30
     Davidson diagonalization with overlap
     ethr =  1.05E-05,  avg # of iterations =  7.2

     total cpu time spent up to now is        4.9 secs

     total energy              =    -147.33252338 Ry
     Harris-Foulkes estimate   =    -147.33237845 Ry
     estimated scf accuracy    <       0.00010312 Ry

     iteration #  5     ecut=    35.00 Ry     beta=0.30
     Davidson diagonalization with overlap
     ethr =  3.22E-07,  avg # of iterations =  2.8

     total cpu time spent up to now is        5.7 secs

     total energy              =    -147.33249084 Ry
     Harris-Foulkes estimate   =    -147.33254397 Ry
     estimated scf accuracy    <       0.00000580 Ry

     iteration #  6     ecut=    35.00 Ry     beta=0.30
     Davidson diagonalization with overlap
     ethr =  1.81E-08,  avg # of iterations =  2.0

     total cpu time spent up to now is        6.4 secs

     total energy              =    -147.33249578 Ry
     Harris-Foulkes estimate   =    -147.33249374 Ry
     estimated scf accuracy    <       0.00000546 Ry

     iteration #  7     ecut=    35.00 Ry     beta=0.30
     Davidson diagonalization with overlap
     ethr =  1.71E-08,  avg # of iterations =  2.0

     total cpu time spent up to now is        7.1 secs

     End of self-consistent calculation

          k = 0.1316 0.1316 0.1316 (   916 PWs)   bands (ev):

    -6.8976   0.4357   0.4358   0.4358   4.7076   4.7076   4.7076   7.7373
     7.7374   7.7374   9.3973   9.3973   9.3974  13.5170  15.4697  15.4697
    21.5697  21.5697  21.5697  23.2586

          k = 0.1316 0.1316 0.3947 (   924 PWs)   bands (ev):

    -5.6329  -3.1457   1.3729   1.3729   3.9957   3.9957   6.6348   6.6348
     8.0018   8.8682   8.8683  10.3672  10.5548  10.6162  12.8775  14.0242
    21.8720  22.6068  24.3513  24.3513

          k = 0.1316 0.3947 0.3947 (   921 PWs)   bands (ev):

    -4.3843  -1.9515  -1.9515   0.2301   3.2768   5.3033   5.3033   7.5194
     7.5910   9.1754   9.1754  11.2797  11.3766  11.5351  11.5351  14.1276
    23.5980  24.8788  24.8789  25.1203

          k = 0.3947 0.3947 0.3947 (   943 PWs)   bands (ev):

    -3.1594  -0.8820  -0.8819  -0.8819   2.1235   2.1235   2.1235   4.3232
    11.5774  11.5774  11.5774  12.1669  12.1669  12.1669  13.3291  13.3291
    24.4413  24.4413  24.4413  25.3123

     the Fermi energy is    17.5319 ev

!    total energy              =    -147.33249794 Ry
     Harris-Foulkes estimate   =    -147.33249645 Ry
     estimated scf accuracy    <       0.00000007 Ry

     total all-electron energy =      -609.445279 Ry

     The total energy is the sum of the following terms:

     one-electron contribution =      40.91269361 Ry
     hartree contribution      =       7.16239127 Ry
     xc contribution           =     -38.55853359 Ry
     ewald contribution        =    -107.51279942 Ry
     one-center paw contrib.   =     -49.33624981 Ry
     smearing contrib. (-TS)   =       0.00000000 Ry

     convergence has been achieved in   7 iterations

     Forces acting on atoms (Ry/au):

     atom    1 type  1   force =     0.00000000    0.00000000    0.00000000
     atom    2 type  1   force =     0.00000000    0.00000000    0.00000000
     atom    3 type  1   force =     0.00000000    0.00000000    0.00000000
     atom    4 type  1   force =     0.00000000    0.00000000    0.00000000
     atom    5 type  1   force =    -0.00000152   -0.00000152   -0.00000152
     atom    6 type  1   force =     0.00000152    0.00000152   -0.00000152
     atom    7 type  1   force =    -0.00000152    0.00000152    0.00000152
     atom    8 type  1   force =     0.00000152   -0.00000152    0.00000152

     Total force =     0.000005     Total SCF correction =     0.000031
     SCF correction compared to forces is large: reduce conv_thr to get better values


     entering subroutine stress ...

          total   stress  (Ry/bohr**3)                   (kbar)     P=  821.22
   0.00558254   0.00000000   0.00000000        821.22      0.00      0.00
   0.00000000   0.00558254   0.00000000          0.00    821.22      0.00
   0.00000000   0.00000000   0.00558254          0.00      0.00    821.22


     Writing output data file template.save

     init_run     :      0.88s CPU      0.93s WALL (       1 calls)
     electrons    :      5.21s CPU      5.41s WALL (       1 calls)
     forces       :      0.23s CPU      0.24s WALL (       1 calls)
     stress       :      0.31s CPU      0.32s WALL (       1 calls)

     Called by init_run:
     wfcinit      :      0.14s CPU      0.14s WALL (       1 calls)
     potinit      :      0.41s CPU      0.43s WALL (       1 calls)

     Called by electrons:
     c_bands      :      1.98s CPU      2.11s WALL (       7 calls)
     sum_band     :      0.37s CPU      0.40s WALL (       7 calls)
     v_of_rho     :      0.21s CPU      0.20s WALL (       8 calls)
     newd         :      0.08s CPU      0.09s WALL (       8 calls)
     PAW_pot      :      2.92s CPU      2.98s WALL (       8 calls)
     mix_rho      :      0.02s CPU      0.02s WALL (       7 calls)

     Called by c_bands:
     init_us_2    :      0.01s CPU      0.03s WALL (      68 calls)
     cegterg      :      1.94s CPU      2.06s WALL (      28 calls)

     Called by sum_band:
     sum_band:bec :      0.00s CPU      0.00s WALL (      28 calls)
     addusdens    :      0.08s CPU      0.09s WALL (       7 calls)

     Called by *egterg:
     h_psi        :      1.38s CPU      1.46s WALL (     114 calls)
     s_psi        :      0.10s CPU      0.08s WALL (     114 calls)
     g_psi        :      0.00s CPU      0.00s WALL (      82 calls)
     cdiaghg      :      0.35s CPU      0.35s WALL (     110 calls)

     Called by h_psi:
     h_psi:pot    :      1.38s CPU      1.46s WALL (     114 calls)
     h_psi:calbec :      0.10s CPU      0.10s WALL (     114 calls)
     vloc_psi     :      1.19s CPU      1.27s WALL (     114 calls)
     add_vuspsi   :      0.08s CPU      0.09s WALL (     114 calls)

     General routines
     calbec       :      0.17s CPU      0.16s WALL (     162 calls)
     fft          :      0.20s CPU      0.22s WALL (     149 calls)
     ffts         :      0.01s CPU      0.01s WALL (      15 calls)
     fftw         :      1.30s CPU      1.37s WALL (    3806 calls)
     interpolate  :      0.02s CPU      0.03s WALL (      15 calls)
     davcio       :      0.00s CPU      0.00s WALL (       4 calls)

     Parallel routines
     fft_scatter  :      0.40s CPU      0.45s WALL (    3970 calls)

     PWSCF        :     7.54s CPU         7.91s WALL


   This run was terminated on:  12:48: 5   9Jun2017            

=------------------------------------------------------------------------------=
   JOB DONE.
=------------------------------------------------------------------------------=
