
     Program PWSCF v.6.0 (svn rev. 13079) starts on  9Jun2017 at 12:49:15 

     This program is part of the open-source Quantum ESPRESSO suite
     for quantum simulation of materials; please cite
         "P. Giannozzi et al., J. Phys.:Condens. Matter 21 395502 (2009);
          URL http://www.quantum-espresso.org", 
     in publications or presentations arising from this work. More details at
     http://www.quantum-espresso.org/quote

     Parallel version (MPI), running on     4 processors
     R & G space division:  proc/nbgrp/npool/nimage =       4
     Waiting for input...
     Reading input from standard input
Warning: card &IONS ignored
Warning: card ION_DYNAMICS='BFGS', ignored
Warning: card / ignored
Warning: card &CELL ignored
Warning: card CELL_DYNAMICS='BFGS', ignored
Warning: card PRESS = 0.0, ignored
Warning: card CELL_FACTOR = 2.0, ignored
Warning: card / ignored

     Current dimensions of program PWSCF are:
     Max number of different atomic species (ntypx) = 10
     Max number of k-points (npk) =  40000
     Max angular momentum in pseudopotentials (lmaxx) =  3
               file C.pbe-n-kjpaw_psl.1.0.0.UPF: wavefunction(s)  2S 2P renormalized

     Subspace diagonalization in iterative solution of the eigenvalue problem:
     a serial algorithm will be used

     Found symmetry operation: I + (  0.5000  0.5000  0.0000)
     This is a supercell, fractional translations are disabled

     Parallelization info
     --------------------
     sticks:   dense  smooth     PW     G-vecs:    dense   smooth      PW
     Min         198     138     44                 4206     2448     411
     Max         199     139     45                 4209     2451     412
     Sum         793     553    177                16831     9795    1647



     bravais-lattice index     =            0
     lattice parameter (alat)  =       6.7508  a.u.
     unit-cell volume          =     351.0909 (a.u.)^3
     number of atoms/cell      =            8
     number of atomic types    =            1
     number of electrons       =        32.00
     number of Kohn-Sham states=           20
     kinetic-energy cutoff     =      35.0000  Ry
     charge density cutoff     =     200.0000  Ry
     convergence threshold     =      1.0E-06
     mixing beta               =       0.3000
     number of iterations used =           10  TF        mixing
     Exchange-correlation      =  SLA  PW   PBX  PBC ( 1  4  3  4 0 0)

     celldm(1)=   6.750826  celldm(2)=   0.000000  celldm(3)=   0.000000
     celldm(4)=   0.000000  celldm(5)=   0.000000  celldm(6)=   0.000000

     crystal axes: (cart. coord. in units of alat)
               a(1) = (   1.045000   0.000000   0.000000 )  
               a(2) = (   0.000000   1.045000   0.000000 )  
               a(3) = (   0.000000   0.000000   1.045000 )  

     reciprocal axes: (cart. coord. in units 2 pi/alat)
               b(1) = (  0.956938  0.000000  0.000000 )  
               b(2) = (  0.000000  0.956938  0.000000 )  
               b(3) = (  0.000000  0.000000  0.956938 )  


     PseudoPot. # 1 for  C read from file:
     /home/ben/espresso/pp/C.pbe-n-kjpaw_psl.1.0.0.UPF
     MD5 check sum: 151efd6a948e5eaef53e53bb29d01b27
     Pseudo is Projector augmented-wave + core cor, Zval =  4.0
     Generated using "atomic" code by A. Dal Corso  v.5.1
     Shape of augmentation charge: PSQ
     Using radial grid of 1073 points,  4 beta functions with: 
                l(1) =   0
                l(2) =   0
                l(3) =   1
                l(4) =   1
     Q(r) pseudized with 0 coefficients 


     atomic species   valence    mass     pseudopotential
        C              4.00    12.00000      C( 1.00)

     24 Sym. Ops. (no inversion) found



   Cartesian axes

     site n.     atom                  positions (alat units)
         1           C   tau(   1) = (   0.0000000   0.0000000   0.0000000  )
         2           C   tau(   2) = (   0.5225000   0.5225000   0.0000000  )
         3           C   tau(   3) = (   0.5225000   0.0000000   0.5225000  )
         4           C   tau(   4) = (   0.0000000   0.5225000   0.5225000  )
         5           C   tau(   5) = (   0.2612500   0.2612500   0.2612500  )
         6           C   tau(   6) = (   0.7837500   0.7837500   0.2612500  )
         7           C   tau(   7) = (   0.2612500   0.7837500   0.7837500  )
         8           C   tau(   8) = (   0.7837500   0.2612500   0.7837500  )

     number of k points=     4  Marzari-Vanderbilt smearing, width (Ry)=  0.0200
                       cart. coord. in units 2pi/alat
        k(    1) = (   0.1196172   0.1196172   0.1196172), wk =   0.2500000
        k(    2) = (   0.1196172   0.1196172   0.3588517), wk =   0.7500000
        k(    3) = (   0.1196172   0.3588517   0.3588517), wk =   0.7500000
        k(    4) = (   0.3588517   0.3588517   0.3588517), wk =   0.2500000

     Dense  grid:    16831 G-vectors     FFT dimensions: (  32,  32,  32)

     Smooth grid:     9795 G-vectors     FFT dimensions: (  27,  27,  27)

     Estimated max dynamical RAM per process >       4.22Mb

     Estimated total allocated dynamical RAM >      16.90Mb

     Check: negative/imaginary core charge=   -0.000079    0.000000

     Initial potential from superposition of free atoms

     starting charge   31.99967, renormalised to   32.00000
     Starting wfc are   32 randomized atomic wfcs
     Checking if some PAW data can be deallocated... 

     total cpu time spent up to now is        0.6 secs

     per-process dynamical memory:    16.7 Mb

     Self-consistent Calculation

     iteration #  1     ecut=    35.00 Ry     beta=0.30
     Davidson diagonalization with overlap
     ethr =  1.00E-02,  avg # of iterations =  2.2

     total cpu time spent up to now is        0.9 secs

     total energy              =    -147.44499766 Ry
     Harris-Foulkes estimate   =    -147.49647535 Ry
     estimated scf accuracy    <       0.33680343 Ry

     iteration #  2     ecut=    35.00 Ry     beta=0.30
     Davidson diagonalization with overlap
     ethr =  1.05E-03,  avg # of iterations =  1.0

     total cpu time spent up to now is        1.2 secs

     total energy              =    -147.36386992 Ry
     Harris-Foulkes estimate   =    -147.44774287 Ry
     estimated scf accuracy    <       0.20084440 Ry

     iteration #  3     ecut=    35.00 Ry     beta=0.30
     Davidson diagonalization with overlap
     ethr =  6.28E-04,  avg # of iterations =  2.0

     total cpu time spent up to now is        1.5 secs

     total energy              =    -147.38251503 Ry
     Harris-Foulkes estimate   =    -147.37967823 Ry
     estimated scf accuracy    <       0.00247137 Ry

     iteration #  4     ecut=    35.00 Ry     beta=0.30
     Davidson diagonalization with overlap
     ethr =  7.72E-06,  avg # of iterations =  7.5

     total cpu time spent up to now is        1.9 secs

     total energy              =    -147.38355174 Ry
     Harris-Foulkes estimate   =    -147.38320334 Ry
     estimated scf accuracy    <       0.00024141 Ry

     iteration #  5     ecut=    35.00 Ry     beta=0.30
     Davidson diagonalization with overlap
     ethr =  7.54E-07,  avg # of iterations =  2.0

     total cpu time spent up to now is        2.2 secs

     total energy              =    -147.38357676 Ry
     Harris-Foulkes estimate   =    -147.38360374 Ry
     estimated scf accuracy    <       0.00000873 Ry

     iteration #  6     ecut=    35.00 Ry     beta=0.30
     Davidson diagonalization with overlap
     ethr =  2.73E-08,  avg # of iterations =  2.0

     total cpu time spent up to now is        2.5 secs

     total energy              =    -147.38358366 Ry
     Harris-Foulkes estimate   =    -147.38357880 Ry
     estimated scf accuracy    <       0.00000273 Ry

     iteration #  7     ecut=    35.00 Ry     beta=0.30
     Davidson diagonalization with overlap
     ethr =  8.53E-09,  avg # of iterations =  2.0

     total cpu time spent up to now is        2.8 secs

     End of self-consistent calculation

          k = 0.1196 0.1196 0.1196 (  1240 PWs)   bands (ev):

    -8.3274  -2.3916  -2.3915  -2.3915   1.0071   1.0071   1.0071   4.6043
     4.6043   4.6043   5.8282   5.8282   5.8283   8.8299  10.4544  10.4544
    15.6654  15.6654  15.6654  16.9830

          k = 0.1196 0.1196 0.3589 (  1224 PWs)   bands (ev):

    -7.2915  -5.2684  -1.8093  -1.8092   0.6477   0.6478   3.6090   3.6090
     4.0088   5.4874   5.4875   6.3488   6.3717   6.7787   8.5231   9.1364
    15.7990  16.4076  17.9807  17.9807

          k = 0.1196 0.3589 0.3589 (  1230 PWs)   bands (ev):

    -6.2815  -4.3432  -4.3432  -2.7588   0.4905   2.0102   2.0102   3.9380
     4.0881   5.3811   5.3811   7.1289   7.3380   7.4348   7.4348   9.3973
    17.3366  18.3430  18.3431  18.4926

          k = 0.3589 0.3589 0.3589 (  1223 PWs)   bands (ev):

    -5.3237  -3.6672  -3.6671  -3.6671  -0.2853  -0.2853  -0.2853   1.3393
     7.2747   7.2748   7.2748   7.9272   7.9272   7.9272   8.7944   8.7944
    17.9729  17.9729  17.9730  18.0660

     the Fermi energy is    12.0597 ev

!    total energy              =    -147.38358544 Ry
     Harris-Foulkes estimate   =    -147.38358435 Ry
     estimated scf accuracy    <       0.00000004 Ry

     total all-electron energy =      -609.496367 Ry

     The total energy is the sum of the following terms:

     one-electron contribution =      27.91017019 Ry
     hartree contribution      =       8.34437293 Ry
     xc contribution           =     -36.61218082 Ry
     ewald contribution        =     -97.73890814 Ry
     one-center paw contrib.   =     -49.28703959 Ry
     smearing contrib. (-TS)   =       0.00000000 Ry

     convergence has been achieved in   7 iterations

     Forces acting on atoms (Ry/au):

     atom    1 type  1   force =     0.00000000    0.00000000    0.00000000
     atom    2 type  1   force =     0.00000000    0.00000000    0.00000000
     atom    3 type  1   force =     0.00000000    0.00000000    0.00000000
     atom    4 type  1   force =     0.00000000    0.00000000    0.00000000
     atom    5 type  1   force =     0.00000155    0.00000155    0.00000155
     atom    6 type  1   force =    -0.00000155   -0.00000155    0.00000155
     atom    7 type  1   force =     0.00000155   -0.00000155   -0.00000155
     atom    8 type  1   force =    -0.00000155    0.00000155   -0.00000155

     Total force =     0.000005     Total SCF correction =     0.000029
     SCF correction compared to forces is large: reduce conv_thr to get better values


     entering subroutine stress ...

          total   stress  (Ry/bohr**3)                   (kbar)     P= -480.37
  -0.00326547   0.00000000   0.00000000       -480.37      0.00      0.00
   0.00000000  -0.00326547   0.00000000          0.00   -480.37      0.00
   0.00000000   0.00000000  -0.00326547          0.00      0.00   -480.37


     Writing output data file template.save

     init_run     :      0.31s CPU      0.32s WALL (       1 calls)
     electrons    :      2.17s CPU      2.23s WALL (       1 calls)
     forces       :      0.09s CPU      0.09s WALL (       1 calls)
     stress       :      0.11s CPU      0.11s WALL (       1 calls)

     Called by init_run:
     wfcinit      :      0.07s CPU      0.07s WALL (       1 calls)
     potinit      :      0.13s CPU      0.14s WALL (       1 calls)

     Called by electrons:
     c_bands      :      1.00s CPU      1.03s WALL (       7 calls)
     sum_band     :      0.19s CPU      0.20s WALL (       7 calls)
     v_of_rho     :      0.07s CPU      0.07s WALL (       8 calls)
     newd         :      0.04s CPU      0.05s WALL (       8 calls)
     PAW_pot      :      0.98s CPU      0.99s WALL (       8 calls)
     mix_rho      :      0.01s CPU      0.01s WALL (       7 calls)

     Called by c_bands:
     init_us_2    :      0.00s CPU      0.01s WALL (      68 calls)
     cegterg      :      0.99s CPU      1.01s WALL (      28 calls)

     Called by sum_band:
     sum_band:bec :      0.00s CPU      0.00s WALL (      28 calls)
     addusdens    :      0.04s CPU      0.04s WALL (       7 calls)

     Called by *egterg:
     h_psi        :      0.71s CPU      0.78s WALL (     107 calls)
     s_psi        :      0.03s CPU      0.04s WALL (     107 calls)
     g_psi        :      0.00s CPU      0.00s WALL (      75 calls)
     cdiaghg      :      0.17s CPU      0.11s WALL (     103 calls)

     Called by h_psi:
     h_psi:pot    :      0.71s CPU      0.78s WALL (     107 calls)
     h_psi:calbec :      0.03s CPU      0.05s WALL (     107 calls)
     vloc_psi     :      0.65s CPU      0.69s WALL (     107 calls)
     add_vuspsi   :      0.04s CPU      0.04s WALL (     107 calls)

     General routines
     calbec       :      0.05s CPU      0.07s WALL (     155 calls)
     fft          :      0.07s CPU      0.06s WALL (     149 calls)
     ffts         :      0.01s CPU      0.01s WALL (      15 calls)
     fftw         :      0.71s CPU      0.76s WALL (    3848 calls)
     interpolate  :      0.02s CPU      0.01s WALL (      15 calls)
     davcio       :      0.00s CPU      0.00s WALL (       4 calls)

     Parallel routines
     fft_scatter  :      0.27s CPU      0.27s WALL (    4012 calls)

     PWSCF        :     2.94s CPU         3.09s WALL


   This run was terminated on:  12:49:19   9Jun2017            

=------------------------------------------------------------------------------=
   JOB DONE.
=------------------------------------------------------------------------------=
