
     Program PWSCF v.6.0 (svn rev. 13079) starts on  9Jun2017 at 12:48:47 

     This program is part of the open-source Quantum ESPRESSO suite
     for quantum simulation of materials; please cite
         "P. Giannozzi et al., J. Phys.:Condens. Matter 21 395502 (2009);
          URL http://www.quantum-espresso.org", 
     in publications or presentations arising from this work. More details at
     http://www.quantum-espresso.org/quote

     Parallel version (MPI), running on     4 processors
     R & G space division:  proc/nbgrp/npool/nimage =       4
     Waiting for input...
     Reading input from standard input
Warning: card &IONS ignored
Warning: card ION_DYNAMICS='BFGS', ignored
Warning: card / ignored
Warning: card &CELL ignored
Warning: card CELL_DYNAMICS='BFGS', ignored
Warning: card PRESS = 0.0, ignored
Warning: card CELL_FACTOR = 2.0, ignored
Warning: card / ignored

     Current dimensions of program PWSCF are:
     Max number of different atomic species (ntypx) = 10
     Max number of k-points (npk) =  40000
     Max angular momentum in pseudopotentials (lmaxx) =  3
               file C.pbe-n-kjpaw_psl.1.0.0.UPF: wavefunction(s)  2S 2P renormalized

     Subspace diagonalization in iterative solution of the eigenvalue problem:
     a serial algorithm will be used

     Found symmetry operation: I + ( -0.5000 -0.5000  0.0000)
     This is a supercell, fractional translations are disabled

     Parallelization info
     --------------------
     sticks:   dense  smooth     PW     G-vecs:    dense   smooth      PW
     Min         187     129     40                 3853     2261     375
     Max         188     130     41                 3856     2262     376
     Sum         749     517    161                15419     9045    1503



     bravais-lattice index     =            0
     lattice parameter (alat)  =       6.7508  a.u.
     unit-cell volume          =     321.7131 (a.u.)^3
     number of atoms/cell      =            8
     number of atomic types    =            1
     number of electrons       =        32.00
     number of Kohn-Sham states=           20
     kinetic-energy cutoff     =      35.0000  Ry
     charge density cutoff     =     200.0000  Ry
     convergence threshold     =      1.0E-06
     mixing beta               =       0.3000
     number of iterations used =           10  TF        mixing
     Exchange-correlation      =  SLA  PW   PBX  PBC ( 1  4  3  4 0 0)

     celldm(1)=   6.750826  celldm(2)=   0.000000  celldm(3)=   0.000000
     celldm(4)=   0.000000  celldm(5)=   0.000000  celldm(6)=   0.000000

     crystal axes: (cart. coord. in units of alat)
               a(1) = (   1.015000   0.000000   0.000000 )  
               a(2) = (   0.000000   1.015000   0.000000 )  
               a(3) = (   0.000000   0.000000   1.015000 )  

     reciprocal axes: (cart. coord. in units 2 pi/alat)
               b(1) = (  0.985222  0.000000  0.000000 )  
               b(2) = (  0.000000  0.985222  0.000000 )  
               b(3) = (  0.000000  0.000000  0.985222 )  


     PseudoPot. # 1 for  C read from file:
     /home/ben/espresso/pp/C.pbe-n-kjpaw_psl.1.0.0.UPF
     MD5 check sum: 151efd6a948e5eaef53e53bb29d01b27
     Pseudo is Projector augmented-wave + core cor, Zval =  4.0
     Generated using "atomic" code by A. Dal Corso  v.5.1
     Shape of augmentation charge: PSQ
     Using radial grid of 1073 points,  4 beta functions with: 
                l(1) =   0
                l(2) =   0
                l(3) =   1
                l(4) =   1
     Q(r) pseudized with 0 coefficients 


     atomic species   valence    mass     pseudopotential
        C              4.00    12.00000      C( 1.00)

     24 Sym. Ops. (no inversion) found



   Cartesian axes

     site n.     atom                  positions (alat units)
         1           C   tau(   1) = (   0.0000000   0.0000000   0.0000000  )
         2           C   tau(   2) = (   0.5075000   0.5075000   0.0000000  )
         3           C   tau(   3) = (   0.5075000   0.0000000   0.5075000  )
         4           C   tau(   4) = (   0.0000000   0.5075000   0.5075000  )
         5           C   tau(   5) = (   0.2537500   0.2537500   0.2537500  )
         6           C   tau(   6) = (   0.7612500   0.7612500   0.2537500  )
         7           C   tau(   7) = (   0.2537500   0.7612500   0.7612500  )
         8           C   tau(   8) = (   0.7612500   0.2537500   0.7612500  )

     number of k points=     4  Marzari-Vanderbilt smearing, width (Ry)=  0.0200
                       cart. coord. in units 2pi/alat
        k(    1) = (   0.1231527   0.1231527   0.1231527), wk =   0.2500000
        k(    2) = (   0.1231527   0.1231527   0.3694581), wk =   0.7500000
        k(    3) = (   0.1231527   0.3694581   0.3694581), wk =   0.7500000
        k(    4) = (   0.3694581   0.3694581   0.3694581), wk =   0.2500000

     Dense  grid:    15419 G-vectors     FFT dimensions: (  32,  32,  32)

     Smooth grid:     9045 G-vectors     FFT dimensions: (  25,  25,  25)

     Estimated max dynamical RAM per process >       3.93Mb

     Estimated total allocated dynamical RAM >      15.74Mb

     Check: negative/imaginary core charge=   -0.000079    0.000000

     Initial potential from superposition of free atoms

     starting charge   31.99967, renormalised to   32.00000
     Starting wfc are   32 randomized atomic wfcs
     Checking if some PAW data can be deallocated... 

     total cpu time spent up to now is        0.6 secs

     per-process dynamical memory:    16.5 Mb

     Self-consistent Calculation

     iteration #  1     ecut=    35.00 Ry     beta=0.30
     Davidson diagonalization with overlap
     ethr =  1.00E-02,  avg # of iterations =  2.2

     total cpu time spent up to now is        0.9 secs

     total energy              =    -147.53014524 Ry
     Harris-Foulkes estimate   =    -147.60038607 Ry
     estimated scf accuracy    <       0.41875164 Ry

     iteration #  2     ecut=    35.00 Ry     beta=0.30
     Davidson diagonalization with overlap
     ethr =  1.31E-03,  avg # of iterations =  1.0

     total cpu time spent up to now is        1.1 secs

     total energy              =    -147.42089322 Ry
     Harris-Foulkes estimate   =    -147.53283032 Ry
     estimated scf accuracy    <       0.24769687 Ry

     iteration #  3     ecut=    35.00 Ry     beta=0.30
     Davidson diagonalization with overlap
     ethr =  7.74E-04,  avg # of iterations =  3.0

     total cpu time spent up to now is        1.3 secs

     total energy              =    -147.44497560 Ry
     Harris-Foulkes estimate   =    -147.44190668 Ry
     estimated scf accuracy    <       0.00280258 Ry

     iteration #  4     ecut=    35.00 Ry     beta=0.30
     Davidson diagonalization with overlap
     ethr =  8.76E-06,  avg # of iterations =  8.0

     total cpu time spent up to now is        1.6 secs

     total energy              =    -147.44600155 Ry
     Harris-Foulkes estimate   =    -147.44572406 Ry
     estimated scf accuracy    <       0.00021742 Ry

     iteration #  5     ecut=    35.00 Ry     beta=0.30
     Davidson diagonalization with overlap
     ethr =  6.79E-07,  avg # of iterations =  2.0

     total cpu time spent up to now is        1.9 secs

     total energy              =    -147.44601063 Ry
     Harris-Foulkes estimate   =    -147.44604915 Ry
     estimated scf accuracy    <       0.00000901 Ry

     iteration #  6     ecut=    35.00 Ry     beta=0.30
     Davidson diagonalization with overlap
     ethr =  2.82E-08,  avg # of iterations =  2.2

     total cpu time spent up to now is        2.2 secs

     total energy              =    -147.44601810 Ry
     Harris-Foulkes estimate   =    -147.44601404 Ry
     estimated scf accuracy    <       0.00000412 Ry

     iteration #  7     ecut=    35.00 Ry     beta=0.30
     Davidson diagonalization with overlap
     ethr =  1.29E-08,  avg # of iterations =  2.0

     total cpu time spent up to now is        2.4 secs

     End of self-consistent calculation

          k = 0.1232 0.1232 0.1232 (  1117 PWs)   bands (ev):

    -7.9333  -1.5881  -1.5881  -1.5881   2.0572   2.0572   2.0572   5.4860
     5.4861   5.4861   6.8360   6.8360   6.8360  10.1549  11.8739  11.8739
    17.3510  17.3510  17.3510  18.7685

          k = 0.1232 0.1232 0.3695 (  1136 PWs)   bands (ev):

    -6.8298  -4.6700  -0.9078  -0.9078   1.6148   1.6148   4.4392   4.4393
     5.1622   6.4397   6.4397   7.4640   7.5624   7.8583   9.7501  10.5075
    17.5238  18.1664  19.8270  19.8270

          k = 0.1232 0.3695 0.3695 (  1121 PWs)   bands (ev):

    -5.7489  -3.6646  -3.6646  -1.9121   1.2943   2.9514   2.9514   4.9751
     5.0378   6.4420   6.4420   8.2962   8.4749   8.5893   8.5894  10.7284
    19.1606  20.2366  20.2367  20.3828

          k = 0.3695 0.3695 0.3695 (  1121 PWs)   bands (ev):

    -4.7109  -2.8783  -2.8782  -2.8782   0.3941   0.3941   0.3941   2.1799
     8.4835   8.4835   8.4835   9.1214   9.1214   9.1214  10.0692  10.0692
    19.8947  19.8947  19.8947  20.5768

     the Fermi energy is    13.7214 ev

!    total energy              =    -147.44601986 Ry
     Harris-Foulkes estimate   =    -147.44601866 Ry
     estimated scf accuracy    <       0.00000007 Ry

     total all-electron energy =      -609.558801 Ry

     The total energy is the sum of the following terms:

     one-electron contribution =      31.68864611 Ry
     hartree contribution      =       7.96261755 Ry
     xc contribution           =     -37.17293709 Ry
     ewald contribution        =    -100.62774289 Ry
     one-center paw contrib.   =     -49.29660355 Ry
     smearing contrib. (-TS)   =       0.00000000 Ry

     convergence has been achieved in   7 iterations

     Forces acting on atoms (Ry/au):

     atom    1 type  1   force =     0.00000000    0.00000000    0.00000000
     atom    2 type  1   force =     0.00000000    0.00000000    0.00000000
     atom    3 type  1   force =     0.00000000    0.00000000    0.00000000
     atom    4 type  1   force =     0.00000000    0.00000000    0.00000000
     atom    5 type  1   force =    -0.00000206   -0.00000206   -0.00000206
     atom    6 type  1   force =     0.00000206    0.00000206   -0.00000206
     atom    7 type  1   force =    -0.00000206    0.00000206    0.00000206
     atom    8 type  1   force =     0.00000206   -0.00000206    0.00000206

     Total force =     0.000007     Total SCF correction =     0.000062
     SCF correction compared to forces is large: reduce conv_thr to get better values


     entering subroutine stress ...

          total   stress  (Ry/bohr**3)                   (kbar)     P= -220.58
  -0.00149950   0.00000000   0.00000000       -220.58      0.00      0.00
   0.00000000  -0.00149950   0.00000000          0.00   -220.58      0.00
   0.00000000   0.00000000  -0.00149950          0.00      0.00   -220.58


     Writing output data file template.save

     init_run     :      0.32s CPU      0.33s WALL (       1 calls)
     electrons    :      1.80s CPU      1.83s WALL (       1 calls)
     forces       :      0.08s CPU      0.08s WALL (       1 calls)
     stress       :      0.11s CPU      0.10s WALL (       1 calls)

     Called by init_run:
     wfcinit      :      0.05s CPU      0.05s WALL (       1 calls)
     potinit      :      0.14s CPU      0.15s WALL (       1 calls)

     Called by electrons:
     c_bands      :      0.70s CPU      0.72s WALL (       7 calls)
     sum_band     :      0.14s CPU      0.14s WALL (       7 calls)
     v_of_rho     :      0.07s CPU      0.06s WALL (       8 calls)
     newd         :      0.04s CPU      0.04s WALL (       8 calls)
     PAW_pot      :      0.98s CPU      1.00s WALL (       8 calls)
     mix_rho      :      0.00s CPU      0.01s WALL (       7 calls)

     Called by c_bands:
     init_us_2    :      0.01s CPU      0.01s WALL (      68 calls)
     cegterg      :      0.67s CPU      0.70s WALL (      28 calls)

     Called by sum_band:
     sum_band:bec :      0.00s CPU      0.00s WALL (      28 calls)
     addusdens    :      0.04s CPU      0.04s WALL (       7 calls)

     Called by *egterg:
     h_psi        :      0.48s CPU      0.49s WALL (     114 calls)
     s_psi        :      0.02s CPU      0.03s WALL (     114 calls)
     g_psi        :      0.00s CPU      0.00s WALL (      82 calls)
     cdiaghg      :      0.10s CPU      0.11s WALL (     110 calls)

     Called by h_psi:
     h_psi:pot    :      0.47s CPU      0.48s WALL (     114 calls)
     h_psi:calbec :      0.05s CPU      0.04s WALL (     114 calls)
     vloc_psi     :      0.39s CPU      0.42s WALL (     114 calls)
     add_vuspsi   :      0.03s CPU      0.03s WALL (     114 calls)

     General routines
     calbec       :      0.07s CPU      0.06s WALL (     162 calls)
     fft          :      0.06s CPU      0.05s WALL (     149 calls)
     ffts         :      0.00s CPU      0.00s WALL (      15 calls)
     fftw         :      0.42s CPU      0.45s WALL (    3812 calls)
     interpolate  :      0.01s CPU      0.01s WALL (      15 calls)
     davcio       :      0.00s CPU      0.00s WALL (       4 calls)

     Parallel routines
     fft_scatter  :      0.16s CPU      0.16s WALL (    3976 calls)

     PWSCF        :     2.55s CPU         2.68s WALL


   This run was terminated on:  12:48:50   9Jun2017            

=------------------------------------------------------------------------------=
   JOB DONE.
=------------------------------------------------------------------------------=
