
     Program PWSCF v.6.0 (svn rev. 13079) starts on  9Jun2017 at 12:49: 2 

     This program is part of the open-source Quantum ESPRESSO suite
     for quantum simulation of materials; please cite
         "P. Giannozzi et al., J. Phys.:Condens. Matter 21 395502 (2009);
          URL http://www.quantum-espresso.org", 
     in publications or presentations arising from this work. More details at
     http://www.quantum-espresso.org/quote

     Parallel version (MPI), running on     4 processors
     R & G space division:  proc/nbgrp/npool/nimage =       4
     Waiting for input...
     Reading input from standard input
Warning: card &IONS ignored
Warning: card ION_DYNAMICS='BFGS', ignored
Warning: card / ignored
Warning: card &CELL ignored
Warning: card CELL_DYNAMICS='BFGS', ignored
Warning: card PRESS = 0.0, ignored
Warning: card CELL_FACTOR = 2.0, ignored
Warning: card / ignored

     Current dimensions of program PWSCF are:
     Max number of different atomic species (ntypx) = 10
     Max number of k-points (npk) =  40000
     Max angular momentum in pseudopotentials (lmaxx) =  3
               file C.pbe-n-kjpaw_psl.1.0.0.UPF: wavefunction(s)  2S 2P renormalized

     Subspace diagonalization in iterative solution of the eigenvalue problem:
     a serial algorithm will be used

     Found symmetry operation: I + (  0.5000  0.5000  0.0000)
     This is a supercell, fractional translations are disabled

     Parallelization info
     --------------------
     sticks:   dense  smooth     PW     G-vecs:    dense   smooth      PW
     Min         192     136     40                 3991     2358     386
     Max         193     137     41                 3992     2361     389
     Sum         769     545    161                15967     9435    1551



     bravais-lattice index     =            0
     lattice parameter (alat)  =       6.7508  a.u.
     unit-cell volume          =     336.1881 (a.u.)^3
     number of atoms/cell      =            8
     number of atomic types    =            1
     number of electrons       =        32.00
     number of Kohn-Sham states=           20
     kinetic-energy cutoff     =      35.0000  Ry
     charge density cutoff     =     200.0000  Ry
     convergence threshold     =      1.0E-06
     mixing beta               =       0.3000
     number of iterations used =           10  TF        mixing
     Exchange-correlation      =  SLA  PW   PBX  PBC ( 1  4  3  4 0 0)

     celldm(1)=   6.750826  celldm(2)=   0.000000  celldm(3)=   0.000000
     celldm(4)=   0.000000  celldm(5)=   0.000000  celldm(6)=   0.000000

     crystal axes: (cart. coord. in units of alat)
               a(1) = (   1.030000   0.000000   0.000000 )  
               a(2) = (   0.000000   1.030000   0.000000 )  
               a(3) = (   0.000000   0.000000   1.030000 )  

     reciprocal axes: (cart. coord. in units 2 pi/alat)
               b(1) = (  0.970874  0.000000  0.000000 )  
               b(2) = (  0.000000  0.970874  0.000000 )  
               b(3) = (  0.000000  0.000000  0.970874 )  


     PseudoPot. # 1 for  C read from file:
     /home/ben/espresso/pp/C.pbe-n-kjpaw_psl.1.0.0.UPF
     MD5 check sum: 151efd6a948e5eaef53e53bb29d01b27
     Pseudo is Projector augmented-wave + core cor, Zval =  4.0
     Generated using "atomic" code by A. Dal Corso  v.5.1
     Shape of augmentation charge: PSQ
     Using radial grid of 1073 points,  4 beta functions with: 
                l(1) =   0
                l(2) =   0
                l(3) =   1
                l(4) =   1
     Q(r) pseudized with 0 coefficients 


     atomic species   valence    mass     pseudopotential
        C              4.00    12.00000      C( 1.00)

     24 Sym. Ops. (no inversion) found



   Cartesian axes

     site n.     atom                  positions (alat units)
         1           C   tau(   1) = (   0.0000000   0.0000000   0.0000000  )
         2           C   tau(   2) = (   0.5150000   0.5150000   0.0000000  )
         3           C   tau(   3) = (   0.5150000   0.0000000   0.5150000  )
         4           C   tau(   4) = (   0.0000000   0.5150000   0.5150000  )
         5           C   tau(   5) = (   0.2575000   0.2575000   0.2575000  )
         6           C   tau(   6) = (   0.7725000   0.7725000   0.2575000  )
         7           C   tau(   7) = (   0.2575000   0.7725000   0.7725000  )
         8           C   tau(   8) = (   0.7725000   0.2575000   0.7725000  )

     number of k points=     4  Marzari-Vanderbilt smearing, width (Ry)=  0.0200
                       cart. coord. in units 2pi/alat
        k(    1) = (   0.1213592   0.1213592   0.1213592), wk =   0.2500000
        k(    2) = (   0.1213592   0.1213592   0.3640777), wk =   0.7500000
        k(    3) = (   0.1213592   0.3640777   0.3640777), wk =   0.7500000
        k(    4) = (   0.3640777   0.3640777   0.3640777), wk =   0.2500000

     Dense  grid:    15967 G-vectors     FFT dimensions: (  32,  32,  32)

     Smooth grid:     9435 G-vectors     FFT dimensions: (  27,  27,  27)

     Estimated max dynamical RAM per process >       4.06Mb

     Estimated total allocated dynamical RAM >      16.24Mb

     Check: negative/imaginary core charge=   -0.000075    0.000000

     Initial potential from superposition of free atoms

     starting charge   31.99967, renormalised to   32.00000
     Starting wfc are   32 randomized atomic wfcs
     Checking if some PAW data can be deallocated... 

     total cpu time spent up to now is        1.9 secs

     per-process dynamical memory:    16.6 Mb

     Self-consistent Calculation

     iteration #  1     ecut=    35.00 Ry     beta=0.30
     Davidson diagonalization with overlap
     ethr =  1.00E-02,  avg # of iterations =  2.2

     total cpu time spent up to now is        3.0 secs

     total energy              =    -147.49432040 Ry
     Harris-Foulkes estimate   =    -147.55471013 Ry
     estimated scf accuracy    <       0.37612664 Ry

     iteration #  2     ecut=    35.00 Ry     beta=0.30
     Davidson diagonalization with overlap
     ethr =  1.18E-03,  avg # of iterations =  1.0

     total cpu time spent up to now is        3.7 secs

     total energy              =    -147.39954897 Ry
     Harris-Foulkes estimate   =    -147.49677005 Ry
     estimated scf accuracy    <       0.22328621 Ry

     iteration #  3     ecut=    35.00 Ry     beta=0.30
     Davidson diagonalization with overlap
     ethr =  6.98E-04,  avg # of iterations =  2.0

     total cpu time spent up to now is        4.5 secs

     total energy              =    -147.42077259 Ry
     Harris-Foulkes estimate   =    -147.41783305 Ry
     estimated scf accuracy    <       0.00263448 Ry

     iteration #  4     ecut=    35.00 Ry     beta=0.30
     Davidson diagonalization with overlap
     ethr =  8.23E-06,  avg # of iterations =  8.2

     total cpu time spent up to now is        5.3 secs

     total energy              =    -147.42185025 Ry
     Harris-Foulkes estimate   =    -147.42151931 Ry
     estimated scf accuracy    <       0.00025243 Ry

     iteration #  5     ecut=    35.00 Ry     beta=0.30
     Davidson diagonalization with overlap
     ethr =  7.89E-07,  avg # of iterations =  2.5

     total cpu time spent up to now is        5.7 secs

     total energy              =    -147.42186977 Ry
     Harris-Foulkes estimate   =    -147.42190514 Ry
     estimated scf accuracy    <       0.00000968 Ry

     iteration #  6     ecut=    35.00 Ry     beta=0.30
     Davidson diagonalization with overlap
     ethr =  3.02E-08,  avg # of iterations =  2.0

     total cpu time spent up to now is        6.0 secs

     total energy              =    -147.42187586 Ry
     Harris-Foulkes estimate   =    -147.42187213 Ry
     estimated scf accuracy    <       0.00000238 Ry

     iteration #  7     ecut=    35.00 Ry     beta=0.30
     Davidson diagonalization with overlap
     ethr =  7.42E-09,  avg # of iterations =  2.0

     total cpu time spent up to now is        6.2 secs

     End of self-consistent calculation

          k = 0.1214 0.1214 0.1214 (  1195 PWs)   bands (ev):

    -8.1361  -1.9991  -1.9991  -1.9991   1.5204   1.5204   1.5204   5.0338
     5.0338   5.0339   6.3177   6.3177   6.3177   9.4757  11.1427  11.1427
    16.4904  16.4904  16.4905  17.8545

          k = 0.1214 0.1214 0.3641 (  1171 PWs)   bands (ev):

    -7.0668  -4.9767  -1.3692  -1.3692   1.1222   1.1222   4.0126   4.0126
     4.5749   5.9514   5.9514   6.8902   6.9547   7.3061   9.1214   9.8070
    16.6405  17.2679  18.8863  18.8863

          k = 0.1214 0.3641 0.3641 (  1175 PWs)   bands (ev):

    -6.0219  -4.0118  -4.0118  -2.3459   0.8857   2.4722   2.4722   4.4448
     4.5490   5.8962   5.8962   7.6969   7.8915   7.9975   7.9976  10.0438
    18.2328  19.2716  19.2717  19.4170

          k = 0.3641 0.3641 0.3641 (  1157 PWs)   bands (ev):

    -5.0247  -3.2823  -3.2823  -3.2823   0.0478   0.0478   0.0478   1.7499
     7.8640   7.8640   7.8641   8.5097   8.5098   8.5098   9.4161   9.4161
    18.9260  18.9260  18.9260  19.2936

     the Fermi energy is    12.8008 ev

!    total energy              =    -147.42187727 Ry
     Harris-Foulkes estimate   =    -147.42187637 Ry
     estimated scf accuracy    <       0.00000005 Ry

     total all-electron energy =      -609.534659 Ry

     The total energy is the sum of the following terms:

     one-electron contribution =      29.76591507 Ry
     hartree contribution      =       8.15237906 Ry
     xc contribution           =     -36.88671154 Ry
     ewald contribution        =     -99.16229031 Ry
     one-center paw contrib.   =     -49.29116955 Ry
     smearing contrib. (-TS)   =       0.00000000 Ry

     convergence has been achieved in   7 iterations

     Forces acting on atoms (Ry/au):

     atom    1 type  1   force =     0.00000000    0.00000000    0.00000000
     atom    2 type  1   force =     0.00000000    0.00000000    0.00000000
     atom    3 type  1   force =     0.00000000    0.00000000    0.00000000
     atom    4 type  1   force =     0.00000000    0.00000000    0.00000000
     atom    5 type  1   force =    -0.00000283   -0.00000283   -0.00000283
     atom    6 type  1   force =     0.00000283    0.00000283   -0.00000283
     atom    7 type  1   force =    -0.00000283    0.00000283    0.00000283
     atom    8 type  1   force =     0.00000283   -0.00000283    0.00000283

     Total force =     0.000010     Total SCF correction =     0.000004
     SCF correction compared to forces is large: reduce conv_thr to get better values


     entering subroutine stress ...

          total   stress  (Ry/bohr**3)                   (kbar)     P= -364.22
  -0.00247589   0.00000000   0.00000000       -364.22      0.00      0.00
   0.00000000  -0.00247589   0.00000000          0.00   -364.22      0.00
   0.00000000   0.00000000  -0.00247589          0.00      0.00   -364.22


     Writing output data file template.save

     init_run     :      0.97s CPU      1.06s WALL (       1 calls)
     electrons    :      4.18s CPU      4.34s WALL (       1 calls)
     forces       :      0.08s CPU      0.08s WALL (       1 calls)
     stress       :      0.10s CPU      0.10s WALL (       1 calls)

     Called by init_run:
     wfcinit      :      0.21s CPU      0.23s WALL (       1 calls)
     potinit      :      0.40s CPU      0.44s WALL (       1 calls)

     Called by electrons:
     c_bands      :      2.08s CPU      2.16s WALL (       7 calls)
     sum_band     :      0.35s CPU      0.37s WALL (       7 calls)
     v_of_rho     :      0.12s CPU      0.13s WALL (       8 calls)
     newd         :      0.07s CPU      0.08s WALL (       8 calls)
     PAW_pot      :      1.92s CPU      2.00s WALL (       8 calls)
     mix_rho      :      0.02s CPU      0.01s WALL (       7 calls)

     Called by c_bands:
     init_us_2    :      0.02s CPU      0.02s WALL (      68 calls)
     cegterg      :      2.02s CPU      2.11s WALL (      28 calls)

     Called by sum_band:
     sum_band:bec :      0.00s CPU      0.00s WALL (      28 calls)
     addusdens    :      0.06s CPU      0.07s WALL (       7 calls)

     Called by *egterg:
     h_psi        :      1.55s CPU      1.64s WALL (     112 calls)
     s_psi        :      0.06s CPU      0.08s WALL (     112 calls)
     g_psi        :      0.02s CPU      0.01s WALL (      80 calls)
     cdiaghg      :      0.32s CPU      0.31s WALL (     108 calls)

     Called by h_psi:
     h_psi:pot    :      1.55s CPU      1.64s WALL (     112 calls)
     h_psi:calbec :      0.10s CPU      0.10s WALL (     112 calls)
     vloc_psi     :      1.38s CPU      1.44s WALL (     112 calls)
     add_vuspsi   :      0.07s CPU      0.09s WALL (     112 calls)

     General routines
     calbec       :      0.14s CPU      0.14s WALL (     160 calls)
     fft          :      0.08s CPU      0.09s WALL (     149 calls)
     ffts         :      0.01s CPU      0.01s WALL (      15 calls)
     fftw         :      1.47s CPU      1.56s WALL (    3862 calls)
     interpolate  :      0.02s CPU      0.02s WALL (      15 calls)
     davcio       :      0.00s CPU      0.00s WALL (       4 calls)

     Parallel routines
     fft_scatter  :      0.38s CPU      0.37s WALL (    4026 calls)

     PWSCF        :     6.12s CPU         6.49s WALL


   This run was terminated on:  12:49: 9   9Jun2017            

=------------------------------------------------------------------------------=
   JOB DONE.
=------------------------------------------------------------------------------=
