
     Program PWSCF v.6.0 (svn rev. 13079) starts on  9Jun2017 at 12:48:53 

     This program is part of the open-source Quantum ESPRESSO suite
     for quantum simulation of materials; please cite
         "P. Giannozzi et al., J. Phys.:Condens. Matter 21 395502 (2009);
          URL http://www.quantum-espresso.org", 
     in publications or presentations arising from this work. More details at
     http://www.quantum-espresso.org/quote

     Parallel version (MPI), running on     4 processors
     R & G space division:  proc/nbgrp/npool/nimage =       4
     Waiting for input...
     Reading input from standard input
Warning: card &IONS ignored
Warning: card ION_DYNAMICS='BFGS', ignored
Warning: card / ignored
Warning: card &CELL ignored
Warning: card CELL_DYNAMICS='BFGS', ignored
Warning: card PRESS = 0.0, ignored
Warning: card CELL_FACTOR = 2.0, ignored
Warning: card / ignored

     Current dimensions of program PWSCF are:
     Max number of different atomic species (ntypx) = 10
     Max number of k-points (npk) =  40000
     Max angular momentum in pseudopotentials (lmaxx) =  3
               file C.pbe-n-kjpaw_psl.1.0.0.UPF: wavefunction(s)  2S 2P renormalized

     Subspace diagonalization in iterative solution of the eigenvalue problem:
     a serial algorithm will be used

     Found symmetry operation: I + ( -0.5000 -0.5000  0.0000)
     This is a supercell, fractional translations are disabled

     Parallelization info
     --------------------
     sticks:   dense  smooth     PW     G-vecs:    dense   smooth      PW
     Min         190     131     40                 3947     2292     386
     Max         191     133     41                 3948     2293     389
     Sum         761     529    161                15791     9171    1551



     bravais-lattice index     =            0
     lattice parameter (alat)  =       6.7508  a.u.
     unit-cell volume          =     331.3159 (a.u.)^3
     number of atoms/cell      =            8
     number of atomic types    =            1
     number of electrons       =        32.00
     number of Kohn-Sham states=           20
     kinetic-energy cutoff     =      35.0000  Ry
     charge density cutoff     =     200.0000  Ry
     convergence threshold     =      1.0E-06
     mixing beta               =       0.3000
     number of iterations used =           10  TF        mixing
     Exchange-correlation      =  SLA  PW   PBX  PBC ( 1  4  3  4 0 0)

     celldm(1)=   6.750826  celldm(2)=   0.000000  celldm(3)=   0.000000
     celldm(4)=   0.000000  celldm(5)=   0.000000  celldm(6)=   0.000000

     crystal axes: (cart. coord. in units of alat)
               a(1) = (   1.025000   0.000000   0.000000 )  
               a(2) = (   0.000000   1.025000   0.000000 )  
               a(3) = (   0.000000   0.000000   1.025000 )  

     reciprocal axes: (cart. coord. in units 2 pi/alat)
               b(1) = (  0.975610  0.000000  0.000000 )  
               b(2) = (  0.000000  0.975610  0.000000 )  
               b(3) = (  0.000000  0.000000  0.975610 )  


     PseudoPot. # 1 for  C read from file:
     /home/ben/espresso/pp/C.pbe-n-kjpaw_psl.1.0.0.UPF
     MD5 check sum: 151efd6a948e5eaef53e53bb29d01b27
     Pseudo is Projector augmented-wave + core cor, Zval =  4.0
     Generated using "atomic" code by A. Dal Corso  v.5.1
     Shape of augmentation charge: PSQ
     Using radial grid of 1073 points,  4 beta functions with: 
                l(1) =   0
                l(2) =   0
                l(3) =   1
                l(4) =   1
     Q(r) pseudized with 0 coefficients 


     atomic species   valence    mass     pseudopotential
        C              4.00    12.00000      C( 1.00)

     24 Sym. Ops. (no inversion) found



   Cartesian axes

     site n.     atom                  positions (alat units)
         1           C   tau(   1) = (   0.0000000   0.0000000   0.0000000  )
         2           C   tau(   2) = (   0.5125000   0.5125000   0.0000000  )
         3           C   tau(   3) = (   0.5125000   0.0000000   0.5125000  )
         4           C   tau(   4) = (   0.0000000   0.5125000   0.5125000  )
         5           C   tau(   5) = (   0.2562500   0.2562500   0.2562500  )
         6           C   tau(   6) = (   0.7687500   0.7687500   0.2562500  )
         7           C   tau(   7) = (   0.2562500   0.7687500   0.7687500  )
         8           C   tau(   8) = (   0.7687500   0.2562500   0.7687500  )

     number of k points=     4  Marzari-Vanderbilt smearing, width (Ry)=  0.0200
                       cart. coord. in units 2pi/alat
        k(    1) = (   0.1219512   0.1219512   0.1219512), wk =   0.2500000
        k(    2) = (   0.1219512   0.1219512   0.3658537), wk =   0.7500000
        k(    3) = (   0.1219512   0.3658537   0.3658537), wk =   0.7500000
        k(    4) = (   0.3658537   0.3658537   0.3658537), wk =   0.2500000

     Dense  grid:    15791 G-vectors     FFT dimensions: (  32,  32,  32)

     Smooth grid:     9171 G-vectors     FFT dimensions: (  27,  27,  27)

     Estimated max dynamical RAM per process >       4.02Mb

     Estimated total allocated dynamical RAM >      16.06Mb

     Check: negative/imaginary core charge=   -0.000081    0.000000

     Initial potential from superposition of free atoms

     starting charge   31.99967, renormalised to   32.00000
     Starting wfc are   32 randomized atomic wfcs
     Checking if some PAW data can be deallocated... 

     total cpu time spent up to now is        1.1 secs

     per-process dynamical memory:    16.6 Mb

     Self-consistent Calculation

     iteration #  1     ecut=    35.00 Ry     beta=0.30
     Davidson diagonalization with overlap
     ethr =  1.00E-02,  avg # of iterations =  2.8

     total cpu time spent up to now is        2.0 secs

     total energy              =    -147.50767754 Ry
     Harris-Foulkes estimate   =    -147.57126234 Ry
     estimated scf accuracy    <       0.38991356 Ry

     iteration #  2     ecut=    35.00 Ry     beta=0.30
     Davidson diagonalization with overlap
     ethr =  1.22E-03,  avg # of iterations =  1.0

     total cpu time spent up to now is        2.8 secs

     total energy              =    -147.40845122 Ry
     Harris-Foulkes estimate   =    -147.51039304 Ry
     estimated scf accuracy    <       0.23113530 Ry

     iteration #  3     ecut=    35.00 Ry     beta=0.30
     Davidson diagonalization with overlap
     ethr =  7.22E-04,  avg # of iterations =  1.5

     total cpu time spent up to now is        3.6 secs

     total energy              =    -147.43051083 Ry
     Harris-Foulkes estimate   =    -147.42753554 Ry
     estimated scf accuracy    <       0.00268739 Ry

     iteration #  4     ecut=    35.00 Ry     beta=0.30
     Davidson diagonalization with overlap
     ethr =  8.40E-06,  avg # of iterations =  8.0

     total cpu time spent up to now is        4.9 secs

     total energy              =    -147.43163785 Ry
     Harris-Foulkes estimate   =    -147.43133272 Ry
     estimated scf accuracy    <       0.00027537 Ry

     iteration #  5     ecut=    35.00 Ry     beta=0.30
     Davidson diagonalization with overlap
     ethr =  8.61E-07,  avg # of iterations =  2.0

     total cpu time spent up to now is        5.7 secs

     total energy              =    -147.43165670 Ry
     Harris-Foulkes estimate   =    -147.43169563 Ry
     estimated scf accuracy    <       0.00000991 Ry

     iteration #  6     ecut=    35.00 Ry     beta=0.30
     Davidson diagonalization with overlap
     ethr =  3.10E-08,  avg # of iterations =  2.2

     total cpu time spent up to now is        6.6 secs

     total energy              =    -147.43166519 Ry
     Harris-Foulkes estimate   =    -147.43165978 Ry
     estimated scf accuracy    <       0.00000377 Ry

     iteration #  7     ecut=    35.00 Ry     beta=0.30
     Davidson diagonalization with overlap
     ethr =  1.18E-08,  avg # of iterations =  2.0

     total cpu time spent up to now is        7.5 secs

     End of self-consistent calculation

          k = 0.1220 0.1220 0.1220 (  1168 PWs)   bands (ev):

    -8.0698  -1.8641  -1.8640  -1.8640   1.6966   1.6966   1.6966   5.1827
     5.1827   5.1827   6.4862   6.4862   6.4863   9.6997  11.3856  11.3856
    16.7732  16.7732  16.7732  18.1541

          k = 0.1220 0.1220 0.3659 (  1163 PWs)   bands (ev):

    -6.9892  -4.8760  -1.2178  -1.2178   1.2842   1.2842   4.1518   4.1518
     4.7686   6.1113   6.1113   7.0772   7.1542   7.4868   9.3268  10.0364
    16.9305  17.5626  19.1953  19.1954

          k = 0.1220 0.3659 0.3659 (  1156 PWs)   bands (ev):

    -5.9323  -3.8978  -3.8978  -2.2033   1.0201   2.6296   2.6296   4.6191
     4.7099   6.0745   6.0745   7.8943   8.0828   8.1917   8.1917  10.2680
    18.5382  19.5904  19.5904  19.7354

          k = 0.3659 0.3659 0.3659 (  1148 PWs)   bands (ev):

    -4.9218  -3.1498  -3.1498  -3.1498   0.1615   0.1615   0.1615   1.8903
     8.0665   8.0666   8.0666   8.7099   8.7099   8.7099   9.6319   9.6319
    19.2467  19.2467  19.2468  19.7151

     the Fermi energy is    13.0562 ev

!    total energy              =    -147.43166732 Ry
     Harris-Foulkes estimate   =    -147.43166584 Ry
     estimated scf accuracy    <       0.00000004 Ry

     total all-electron energy =      -609.544449 Ry

     The total energy is the sum of the following terms:

     one-electron contribution =      30.39908994 Ry
     hartree contribution      =       8.08893534 Ry
     xc contribution           =     -36.98085366 Ry
     ewald contribution        =     -99.64600880 Ry
     one-center paw contrib.   =     -49.29283015 Ry
     smearing contrib. (-TS)   =       0.00000000 Ry

     convergence has been achieved in   7 iterations

     Forces acting on atoms (Ry/au):

     atom    1 type  1   force =     0.00000000    0.00000000    0.00000000
     atom    2 type  1   force =     0.00000000    0.00000000    0.00000000
     atom    3 type  1   force =     0.00000000    0.00000000    0.00000000
     atom    4 type  1   force =     0.00000000    0.00000000    0.00000000
     atom    5 type  1   force =     0.00000092    0.00000092    0.00000092
     atom    6 type  1   force =    -0.00000092   -0.00000092    0.00000092
     atom    7 type  1   force =     0.00000092   -0.00000092   -0.00000092
     atom    8 type  1   force =    -0.00000092    0.00000092   -0.00000092

     Total force =     0.000003     Total SCF correction =     0.000011
     SCF correction compared to forces is large: reduce conv_thr to get better values


     entering subroutine stress ...

          total   stress  (Ry/bohr**3)                   (kbar)     P= -319.49
  -0.00217182   0.00000000   0.00000000       -319.49      0.00      0.00
   0.00000000  -0.00217182   0.00000000          0.00   -319.49      0.00
   0.00000000   0.00000000  -0.00217182          0.00      0.00   -319.49


     Writing output data file template.save

     init_run     :      0.74s CPU      0.77s WALL (       1 calls)
     electrons    :      6.10s CPU      6.41s WALL (       1 calls)
     forces       :      0.27s CPU      0.30s WALL (       1 calls)
     stress       :      0.34s CPU      0.43s WALL (       1 calls)

     Called by init_run:
     wfcinit      :      0.21s CPU      0.22s WALL (       1 calls)
     potinit      :      0.40s CPU      0.42s WALL (       1 calls)

     Called by electrons:
     c_bands      :      2.76s CPU      2.92s WALL (       7 calls)
     sum_band     :      0.53s CPU      0.54s WALL (       7 calls)
     v_of_rho     :      0.18s CPU      0.18s WALL (       8 calls)
     newd         :      0.08s CPU      0.12s WALL (       8 calls)
     PAW_pot      :      2.88s CPU      3.02s WALL (       8 calls)
     mix_rho      :      0.02s CPU      0.02s WALL (       7 calls)

     Called by c_bands:
     init_us_2    :      0.03s CPU      0.03s WALL (      68 calls)
     cegterg      :      2.71s CPU      2.86s WALL (      28 calls)

     Called by sum_band:
     sum_band:bec :      0.00s CPU      0.00s WALL (      28 calls)
     addusdens    :      0.09s CPU      0.10s WALL (       7 calls)

     Called by *egterg:
     h_psi        :      2.08s CPU      2.22s WALL (     110 calls)
     s_psi        :      0.09s CPU      0.09s WALL (     110 calls)
     g_psi        :      0.01s CPU      0.01s WALL (      78 calls)
     cdiaghg      :      0.37s CPU      0.37s WALL (     106 calls)

     Called by h_psi:
     h_psi:pot    :      2.07s CPU      2.21s WALL (     110 calls)
     h_psi:calbec :      0.11s CPU      0.12s WALL (     110 calls)
     vloc_psi     :      1.88s CPU      1.99s WALL (     110 calls)
     add_vuspsi   :      0.09s CPU      0.10s WALL (     110 calls)

     General routines
     calbec       :      0.18s CPU      0.20s WALL (     158 calls)
     fft          :      0.16s CPU      0.16s WALL (     149 calls)
     ffts         :      0.03s CPU      0.02s WALL (      15 calls)
     fftw         :      2.07s CPU      2.19s WALL (    3820 calls)
     interpolate  :      0.04s CPU      0.03s WALL (      15 calls)
     davcio       :      0.00s CPU      0.00s WALL (       4 calls)

     Parallel routines
     fft_scatter  :      0.70s CPU      0.75s WALL (    3984 calls)

     PWSCF        :     7.86s CPU         8.42s WALL


   This run was terminated on:  12:49: 2   9Jun2017            

=------------------------------------------------------------------------------=
   JOB DONE.
=------------------------------------------------------------------------------=
