
     Program PWSCF v.6.0 (svn rev. 13079) starts on  9Jun2017 at 12:48:45 

     This program is part of the open-source Quantum ESPRESSO suite
     for quantum simulation of materials; please cite
         "P. Giannozzi et al., J. Phys.:Condens. Matter 21 395502 (2009);
          URL http://www.quantum-espresso.org", 
     in publications or presentations arising from this work. More details at
     http://www.quantum-espresso.org/quote

     Parallel version (MPI), running on     4 processors
     R & G space division:  proc/nbgrp/npool/nimage =       4
     Waiting for input...
     Reading input from standard input
Warning: card &IONS ignored
Warning: card ION_DYNAMICS='BFGS', ignored
Warning: card / ignored
Warning: card &CELL ignored
Warning: card CELL_DYNAMICS='BFGS', ignored
Warning: card PRESS = 0.0, ignored
Warning: card CELL_FACTOR = 2.0, ignored
Warning: card / ignored

     Current dimensions of program PWSCF are:
     Max number of different atomic species (ntypx) = 10
     Max number of k-points (npk) =  40000
     Max angular momentum in pseudopotentials (lmaxx) =  3
               file C.pbe-n-kjpaw_psl.1.0.0.UPF: wavefunction(s)  2S 2P renormalized

     Subspace diagonalization in iterative solution of the eigenvalue problem:
     a serial algorithm will be used

     Found symmetry operation: I + ( -0.5000 -0.5000  0.0000)
     This is a supercell, fractional translations are disabled

     Parallelization info
     --------------------
     sticks:   dense  smooth     PW     G-vecs:    dense   smooth      PW
     Min         187     129     36                 3799     2207     354
     Max         188     130     38                 3802     2208     357
     Sum         749     517    149                15203     8829    1419



     bravais-lattice index     =            0
     lattice parameter (alat)  =       6.7508  a.u.
     unit-cell volume          =     316.9821 (a.u.)^3
     number of atoms/cell      =            8
     number of atomic types    =            1
     number of electrons       =        32.00
     number of Kohn-Sham states=           20
     kinetic-energy cutoff     =      35.0000  Ry
     charge density cutoff     =     200.0000  Ry
     convergence threshold     =      1.0E-06
     mixing beta               =       0.3000
     number of iterations used =           10  TF        mixing
     Exchange-correlation      =  SLA  PW   PBX  PBC ( 1  4  3  4 0 0)

     celldm(1)=   6.750826  celldm(2)=   0.000000  celldm(3)=   0.000000
     celldm(4)=   0.000000  celldm(5)=   0.000000  celldm(6)=   0.000000

     crystal axes: (cart. coord. in units of alat)
               a(1) = (   1.010000   0.000000   0.000000 )  
               a(2) = (   0.000000   1.010000   0.000000 )  
               a(3) = (   0.000000   0.000000   1.010000 )  

     reciprocal axes: (cart. coord. in units 2 pi/alat)
               b(1) = (  0.990099  0.000000  0.000000 )  
               b(2) = (  0.000000  0.990099  0.000000 )  
               b(3) = (  0.000000  0.000000  0.990099 )  


     PseudoPot. # 1 for  C read from file:
     /home/ben/espresso/pp/C.pbe-n-kjpaw_psl.1.0.0.UPF
     MD5 check sum: 151efd6a948e5eaef53e53bb29d01b27
     Pseudo is Projector augmented-wave + core cor, Zval =  4.0
     Generated using "atomic" code by A. Dal Corso  v.5.1
     Shape of augmentation charge: PSQ
     Using radial grid of 1073 points,  4 beta functions with: 
                l(1) =   0
                l(2) =   0
                l(3) =   1
                l(4) =   1
     Q(r) pseudized with 0 coefficients 


     atomic species   valence    mass     pseudopotential
        C              4.00    12.00000      C( 1.00)

     24 Sym. Ops. (no inversion) found



   Cartesian axes

     site n.     atom                  positions (alat units)
         1           C   tau(   1) = (   0.0000000   0.0000000   0.0000000  )
         2           C   tau(   2) = (   0.5050000   0.5050000   0.0000000  )
         3           C   tau(   3) = (   0.5050000   0.0000000   0.5050000  )
         4           C   tau(   4) = (   0.0000000   0.5050000   0.5050000  )
         5           C   tau(   5) = (   0.2525000   0.2525000   0.2525000  )
         6           C   tau(   6) = (   0.7575000   0.7575000   0.2525000  )
         7           C   tau(   7) = (   0.2525000   0.7575000   0.7575000  )
         8           C   tau(   8) = (   0.7575000   0.2525000   0.7575000  )

     number of k points=     4  Marzari-Vanderbilt smearing, width (Ry)=  0.0200
                       cart. coord. in units 2pi/alat
        k(    1) = (   0.1237624   0.1237624   0.1237624), wk =   0.2500000
        k(    2) = (   0.1237624   0.1237624   0.3712871), wk =   0.7500000
        k(    3) = (   0.1237624   0.3712871   0.3712871), wk =   0.7500000
        k(    4) = (   0.3712871   0.3712871   0.3712871), wk =   0.2500000

     Dense  grid:    15203 G-vectors     FFT dimensions: (  32,  32,  32)

     Smooth grid:     8829 G-vectors     FFT dimensions: (  25,  25,  25)

     Estimated max dynamical RAM per process >       3.89Mb

     Estimated total allocated dynamical RAM >      15.56Mb

     Check: negative/imaginary core charge=   -0.000078    0.000000

     Initial potential from superposition of free atoms

     starting charge   31.99967, renormalised to   32.00000
     Starting wfc are   32 randomized atomic wfcs
     Checking if some PAW data can be deallocated... 

     total cpu time spent up to now is        0.6 secs

     per-process dynamical memory:    16.5 Mb

     Self-consistent Calculation

     iteration #  1     ecut=    35.00 Ry     beta=0.30
     Davidson diagonalization with overlap
     ethr =  1.00E-02,  avg # of iterations =  2.2

     total cpu time spent up to now is        0.8 secs

     total energy              =    -147.53861216 Ry
     Harris-Foulkes estimate   =    -147.61237429 Ry
     estimated scf accuracy    <       0.43384400 Ry

     iteration #  2     ecut=    35.00 Ry     beta=0.30
     Davidson diagonalization with overlap
     ethr =  1.36E-03,  avg # of iterations =  1.0

     total cpu time spent up to now is        1.0 secs

     total energy              =    -147.42425906 Ry
     Harris-Foulkes estimate   =    -147.54141260 Ry
     estimated scf accuracy    <       0.25632903 Ry

     iteration #  3     ecut=    35.00 Ry     beta=0.30
     Davidson diagonalization with overlap
     ethr =  8.01E-04,  avg # of iterations =  3.0

     total cpu time spent up to now is        1.3 secs

     total energy              =    -147.44931441 Ry
     Harris-Foulkes estimate   =    -147.44622733 Ry
     estimated scf accuracy    <       0.00284872 Ry

     iteration #  4     ecut=    35.00 Ry     beta=0.30
     Davidson diagonalization with overlap
     ethr =  8.90E-06,  avg # of iterations =  7.8

     total cpu time spent up to now is        1.6 secs

     total energy              =    -147.45036024 Ry
     Harris-Foulkes estimate   =    -147.45008617 Ry
     estimated scf accuracy    <       0.00021695 Ry

     iteration #  5     ecut=    35.00 Ry     beta=0.30
     Davidson diagonalization with overlap
     ethr =  6.78E-07,  avg # of iterations =  2.0

     total cpu time spent up to now is        1.8 secs

     total energy              =    -147.45036752 Ry
     Harris-Foulkes estimate   =    -147.45040722 Ry
     estimated scf accuracy    <       0.00000862 Ry

     iteration #  6     ecut=    35.00 Ry     beta=0.30
     Davidson diagonalization with overlap
     ethr =  2.69E-08,  avg # of iterations =  2.0

     total cpu time spent up to now is        2.1 secs

     total energy              =    -147.45037481 Ry
     Harris-Foulkes estimate   =    -147.45037076 Ry
     estimated scf accuracy    <       0.00000414 Ry

     iteration #  7     ecut=    35.00 Ry     beta=0.30
     Davidson diagonalization with overlap
     ethr =  1.29E-08,  avg # of iterations =  2.0

     total cpu time spent up to now is        2.3 secs

     End of self-consistent calculation

          k = 0.1238 0.1238 0.1238 (  1102 PWs)   bands (ev):

    -7.8631  -1.4471  -1.4471  -1.4471   2.2426   2.2426   2.2426   5.6415
     5.6415   5.6415   7.0123   7.0123   7.0123  10.3905  12.1223  12.1223
    17.6464  17.6464  17.6464  19.0807

          k = 0.1238 0.1238 0.3713 (  1115 PWs)   bands (ev):

    -6.7479  -4.5645  -0.7491  -0.7491   1.7836   1.7836   4.5879   4.5879
     5.3628   6.6090   6.6090   7.6616   7.7707   8.0494   9.9689  10.7497
    17.8270  18.4759  20.1481  20.1481

          k = 0.1238 0.3713 0.3713 (  1103 PWs)   bands (ev):

    -5.6547  -3.5452  -3.5452  -1.7628   1.4336   3.1169   3.1169   5.1580
     5.2072   6.6299   6.6299   8.5013   8.6762   8.7922   8.7922  10.9621
    19.4766  20.5655  20.5655  20.7132

          k = 0.3713 0.3713 0.3713 (  1106 PWs)   bands (ev):

    -4.6031  -2.7393  -2.7393  -2.7393   0.5131   0.5131   0.5131   2.3273
     8.6993   8.6993   8.6993   9.3341   9.3341   9.3341  10.2933  10.2933
    20.2232  20.2232  20.2233  21.0174

     the Fermi energy is    14.0694 ev

!    total energy              =    -147.45037644 Ry
     Harris-Foulkes estimate   =    -147.45037539 Ry
     estimated scf accuracy    <       0.00000005 Ry

     total all-electron energy =      -609.563158 Ry

     The total energy is the sum of the following terms:

     one-electron contribution =      32.34531455 Ry
     hartree contribution      =       7.89986939 Ry
     xc contribution           =     -37.27095327 Ry
     ewald contribution        =    -101.12590004 Ry
     one-center paw contrib.   =     -49.29870708 Ry
     smearing contrib. (-TS)   =       0.00000000 Ry

     convergence has been achieved in   7 iterations

     Forces acting on atoms (Ry/au):

     atom    1 type  1   force =     0.00000000    0.00000000    0.00000000
     atom    2 type  1   force =     0.00000000    0.00000000    0.00000000
     atom    3 type  1   force =     0.00000000    0.00000000    0.00000000
     atom    4 type  1   force =     0.00000000    0.00000000    0.00000000
     atom    5 type  1   force =    -0.00000204   -0.00000204   -0.00000204
     atom    6 type  1   force =     0.00000204    0.00000204   -0.00000204
     atom    7 type  1   force =    -0.00000204    0.00000204    0.00000204
     atom    8 type  1   force =     0.00000204   -0.00000204    0.00000204

     Total force =     0.000007     Total SCF correction =     0.000038
     SCF correction compared to forces is large: reduce conv_thr to get better values


     entering subroutine stress ...

          total   stress  (Ry/bohr**3)                   (kbar)     P= -166.33
  -0.00113072   0.00000000   0.00000000       -166.33      0.00      0.00
   0.00000000  -0.00113072   0.00000000          0.00   -166.33      0.00
   0.00000000   0.00000000  -0.00113072          0.00      0.00   -166.33


     Writing output data file template.save

     init_run     :      0.26s CPU      0.29s WALL (       1 calls)
     electrons    :      1.69s CPU      1.73s WALL (       1 calls)
     forces       :      0.10s CPU      0.10s WALL (       1 calls)
     stress       :      0.10s CPU      0.10s WALL (       1 calls)

     Called by init_run:
     wfcinit      :      0.04s CPU      0.05s WALL (       1 calls)
     potinit      :      0.13s CPU      0.13s WALL (       1 calls)

     Called by electrons:
     c_bands      :      0.64s CPU      0.66s WALL (       7 calls)
     sum_band     :      0.13s CPU      0.14s WALL (       7 calls)
     v_of_rho     :      0.06s CPU      0.06s WALL (       8 calls)
     newd         :      0.02s CPU      0.04s WALL (       8 calls)
     PAW_pot      :      0.93s CPU      0.94s WALL (       8 calls)
     mix_rho      :      0.01s CPU      0.01s WALL (       7 calls)

     Called by c_bands:
     init_us_2    :      0.02s CPU      0.01s WALL (      68 calls)
     cegterg      :      0.60s CPU      0.64s WALL (      28 calls)

     Called by sum_band:
     sum_band:bec :      0.00s CPU      0.00s WALL (      28 calls)
     addusdens    :      0.04s CPU      0.04s WALL (       7 calls)

     Called by *egterg:
     h_psi        :      0.44s CPU      0.46s WALL (     112 calls)
     s_psi        :      0.01s CPU      0.03s WALL (     112 calls)
     g_psi        :      0.00s CPU      0.00s WALL (      80 calls)
     cdiaghg      :      0.10s CPU      0.10s WALL (     108 calls)

     Called by h_psi:
     h_psi:pot    :      0.44s CPU      0.46s WALL (     112 calls)
     h_psi:calbec :      0.03s CPU      0.03s WALL (     112 calls)
     vloc_psi     :      0.38s CPU      0.40s WALL (     112 calls)
     add_vuspsi   :      0.03s CPU      0.03s WALL (     112 calls)

     General routines
     calbec       :      0.05s CPU      0.05s WALL (     160 calls)
     fft          :      0.06s CPU      0.05s WALL (     149 calls)
     ffts         :      0.00s CPU      0.00s WALL (      15 calls)
     fftw         :      0.40s CPU      0.43s WALL (    3814 calls)
     interpolate  :      0.01s CPU      0.01s WALL (      15 calls)
     davcio       :      0.00s CPU      0.00s WALL (       4 calls)

     Parallel routines
     fft_scatter  :      0.14s CPU      0.14s WALL (    3978 calls)

     PWSCF        :     2.44s CPU         2.59s WALL


   This run was terminated on:  12:48:47   9Jun2017            

=------------------------------------------------------------------------------=
   JOB DONE.
=------------------------------------------------------------------------------=
