
     Program PWSCF v.6.0 (svn rev. 13079) starts on  9Jun2017 at 12:49: 9 

     This program is part of the open-source Quantum ESPRESSO suite
     for quantum simulation of materials; please cite
         "P. Giannozzi et al., J. Phys.:Condens. Matter 21 395502 (2009);
          URL http://www.quantum-espresso.org", 
     in publications or presentations arising from this work. More details at
     http://www.quantum-espresso.org/quote

     Parallel version (MPI), running on     4 processors
     R & G space division:  proc/nbgrp/npool/nimage =       4
     Waiting for input...
     Reading input from standard input
Warning: card &IONS ignored
Warning: card ION_DYNAMICS='BFGS', ignored
Warning: card / ignored
Warning: card &CELL ignored
Warning: card CELL_DYNAMICS='BFGS', ignored
Warning: card PRESS = 0.0, ignored
Warning: card CELL_FACTOR = 2.0, ignored
Warning: card / ignored

     Current dimensions of program PWSCF are:
     Max number of different atomic species (ntypx) = 10
     Max number of k-points (npk) =  40000
     Max angular momentum in pseudopotentials (lmaxx) =  3
               file C.pbe-n-kjpaw_psl.1.0.0.UPF: wavefunction(s)  2S 2P renormalized

     Subspace diagonalization in iterative solution of the eigenvalue problem:
     a serial algorithm will be used

     Found symmetry operation: I + ( -0.5000 -0.5000  0.0000)
     This is a supercell, fractional translations are disabled

     Parallelization info
     --------------------
     sticks:   dense  smooth     PW     G-vecs:    dense   smooth      PW
     Min         194     137     42                 4068     2406     393
     Max         195     139     43                 4071     2407     394
     Sum         777     553    169                16279     9627    1575



     bravais-lattice index     =            0
     lattice parameter (alat)  =       6.7508  a.u.
     unit-cell volume          =     341.1079 (a.u.)^3
     number of atoms/cell      =            8
     number of atomic types    =            1
     number of electrons       =        32.00
     number of Kohn-Sham states=           20
     kinetic-energy cutoff     =      35.0000  Ry
     charge density cutoff     =     200.0000  Ry
     convergence threshold     =      1.0E-06
     mixing beta               =       0.3000
     number of iterations used =           10  TF        mixing
     Exchange-correlation      =  SLA  PW   PBX  PBC ( 1  4  3  4 0 0)

     celldm(1)=   6.750826  celldm(2)=   0.000000  celldm(3)=   0.000000
     celldm(4)=   0.000000  celldm(5)=   0.000000  celldm(6)=   0.000000

     crystal axes: (cart. coord. in units of alat)
               a(1) = (   1.035000   0.000000   0.000000 )  
               a(2) = (   0.000000   1.035000   0.000000 )  
               a(3) = (   0.000000   0.000000   1.035000 )  

     reciprocal axes: (cart. coord. in units 2 pi/alat)
               b(1) = (  0.966184  0.000000  0.000000 )  
               b(2) = (  0.000000  0.966184  0.000000 )  
               b(3) = (  0.000000  0.000000  0.966184 )  


     PseudoPot. # 1 for  C read from file:
     /home/ben/espresso/pp/C.pbe-n-kjpaw_psl.1.0.0.UPF
     MD5 check sum: 151efd6a948e5eaef53e53bb29d01b27
     Pseudo is Projector augmented-wave + core cor, Zval =  4.0
     Generated using "atomic" code by A. Dal Corso  v.5.1
     Shape of augmentation charge: PSQ
     Using radial grid of 1073 points,  4 beta functions with: 
                l(1) =   0
                l(2) =   0
                l(3) =   1
                l(4) =   1
     Q(r) pseudized with 0 coefficients 


     atomic species   valence    mass     pseudopotential
        C              4.00    12.00000      C( 1.00)

     24 Sym. Ops. (no inversion) found



   Cartesian axes

     site n.     atom                  positions (alat units)
         1           C   tau(   1) = (   0.0000000   0.0000000   0.0000000  )
         2           C   tau(   2) = (   0.5175000   0.5175000   0.0000000  )
         3           C   tau(   3) = (   0.5175000   0.0000000   0.5175000  )
         4           C   tau(   4) = (   0.0000000   0.5175000   0.5175000  )
         5           C   tau(   5) = (   0.2587500   0.2587500   0.2587500  )
         6           C   tau(   6) = (   0.7762500   0.7762500   0.2587500  )
         7           C   tau(   7) = (   0.2587500   0.7762500   0.7762500  )
         8           C   tau(   8) = (   0.7762500   0.2587500   0.7762500  )

     number of k points=     4  Marzari-Vanderbilt smearing, width (Ry)=  0.0200
                       cart. coord. in units 2pi/alat
        k(    1) = (   0.1207729   0.1207729   0.1207729), wk =   0.2500000
        k(    2) = (   0.1207729   0.1207729   0.3623188), wk =   0.7500000
        k(    3) = (   0.1207729   0.3623188   0.3623188), wk =   0.7500000
        k(    4) = (   0.3623188   0.3623188   0.3623188), wk =   0.2500000

     Dense  grid:    16279 G-vectors     FFT dimensions: (  32,  32,  32)

     Smooth grid:     9627 G-vectors     FFT dimensions: (  27,  27,  27)

     Estimated max dynamical RAM per process >       4.12Mb

     Estimated total allocated dynamical RAM >      16.47Mb

     Check: negative/imaginary core charge=   -0.000076    0.000000

     Initial potential from superposition of free atoms

     starting charge   31.99967, renormalised to   32.00000
     Starting wfc are   32 randomized atomic wfcs
     Checking if some PAW data can be deallocated... 

     total cpu time spent up to now is        0.7 secs

     per-process dynamical memory:    16.6 Mb

     Self-consistent Calculation

     iteration #  1     ecut=    35.00 Ry     beta=0.30
     Davidson diagonalization with overlap
     ethr =  1.00E-02,  avg # of iterations =  2.2

     total cpu time spent up to now is        0.9 secs

     total energy              =    -147.47920212 Ry
     Harris-Foulkes estimate   =    -147.53651271 Ry
     estimated scf accuracy    <       0.36265668 Ry

     iteration #  2     ecut=    35.00 Ry     beta=0.30
     Davidson diagonalization with overlap
     ethr =  1.13E-03,  avg # of iterations =  1.0

     total cpu time spent up to now is        1.2 secs

     total energy              =    -147.38890754 Ry
     Harris-Foulkes estimate   =    -147.48155085 Ry
     estimated scf accuracy    <       0.21561609 Ry

     iteration #  3     ecut=    35.00 Ry     beta=0.30
     Davidson diagonalization with overlap
     ethr =  6.74E-04,  avg # of iterations =  2.0

     total cpu time spent up to now is        1.4 secs

     total energy              =    -147.40925563 Ry
     Harris-Foulkes estimate   =    -147.40634244 Ry
     estimated scf accuracy    <       0.00258332 Ry

     iteration #  4     ecut=    35.00 Ry     beta=0.30
     Davidson diagonalization with overlap
     ethr =  8.07E-06,  avg # of iterations =  8.0

     total cpu time spent up to now is        1.9 secs

     total energy              =    -147.41033319 Ry
     Harris-Foulkes estimate   =    -147.41000019 Ry
     estimated scf accuracy    <       0.00024980 Ry

     iteration #  5     ecut=    35.00 Ry     beta=0.30
     Davidson diagonalization with overlap
     ethr =  7.81E-07,  avg # of iterations =  2.0

     total cpu time spent up to now is        2.1 secs

     total energy              =    -147.41035437 Ry
     Harris-Foulkes estimate   =    -147.41038970 Ry
     estimated scf accuracy    <       0.00001050 Ry

     iteration #  6     ecut=    35.00 Ry     beta=0.30
     Davidson diagonalization with overlap
     ethr =  3.28E-08,  avg # of iterations =  2.2

     total cpu time spent up to now is        2.4 secs

     total energy              =    -147.41036097 Ry
     Harris-Foulkes estimate   =    -147.41035702 Ry
     estimated scf accuracy    <       0.00000259 Ry

     iteration #  7     ecut=    35.00 Ry     beta=0.30
     Davidson diagonalization with overlap
     ethr =  8.10E-09,  avg # of iterations =  2.0

     total cpu time spent up to now is        2.6 secs

     End of self-consistent calculation

          k = 0.1208 0.1208 0.1208 (  1195 PWs)   bands (ev):

    -8.2010  -2.1317  -2.1316  -2.1316   1.3473   1.3473   1.3473   4.8892
     4.8892   4.8892   6.1528   6.1528   6.1528   9.2573  10.9107  10.9107
    16.2122  16.2122  16.2123  17.5609

          k = 0.1208 0.1208 0.3623 (  1193 PWs)   bands (ev):

    -7.1430  -5.0754  -1.5184  -1.5184   0.9619   0.9619   3.8753   3.8753
     4.3840   5.7946   5.7946   6.7064   6.7569   7.1270   8.9194   9.5799
    16.3560  16.9755  18.5807  18.5807

          k = 0.1208 0.3623 0.3623 (  1183 PWs)   bands (ev):

    -6.1097  -4.1238  -4.1238  -2.4856   0.7523   2.3168   2.3168   4.2739
     4.3930   5.7221   5.7221   7.5053   7.7045   7.8069   7.8070   9.8253
    17.9310  18.9592  18.9592  19.1062

          k = 0.3623 0.3623 0.3623 (  1190 PWs)   bands (ev):

    -5.1258  -3.4126  -3.4125  -3.4125  -0.0656  -0.0656  -0.0656   1.6101
     7.6636   7.6637   7.6637   8.3122   8.3122   8.3122   9.2042   9.2042
    18.6059  18.6059  18.6060  18.8783

     the Fermi energy is    12.5515 ev

!    total energy              =    -147.41036248 Ry
     Harris-Foulkes estimate   =    -147.41036149 Ry
     estimated scf accuracy    <       0.00000006 Ry

     total all-electron energy =      -609.523144 Ry

     The total energy is the sum of the following terms:

     one-electron contribution =      29.14049887 Ry
     hartree contribution      =       8.21596728 Ry
     xc contribution           =     -36.79389023 Ry
     ewald contribution        =     -98.68324543 Ry
     one-center paw contrib.   =     -49.28969297 Ry
     smearing contrib. (-TS)   =       0.00000000 Ry

     convergence has been achieved in   7 iterations

     Forces acting on atoms (Ry/au):

     atom    1 type  1   force =     0.00000000    0.00000000    0.00000000
     atom    2 type  1   force =     0.00000000    0.00000000    0.00000000
     atom    3 type  1   force =     0.00000000    0.00000000    0.00000000
     atom    4 type  1   force =     0.00000000    0.00000000    0.00000000
     atom    5 type  1   force =     0.00000086    0.00000086    0.00000086
     atom    6 type  1   force =    -0.00000086   -0.00000086    0.00000086
     atom    7 type  1   force =     0.00000086   -0.00000086   -0.00000086
     atom    8 type  1   force =    -0.00000086    0.00000086   -0.00000086

     Total force =     0.000003     Total SCF correction =     0.000051
     SCF correction compared to forces is large: reduce conv_thr to get better values


     entering subroutine stress ...

          total   stress  (Ry/bohr**3)                   (kbar)     P= -406.61
  -0.00276405   0.00000000   0.00000000       -406.61      0.00      0.00
   0.00000000  -0.00276405   0.00000000          0.00   -406.61      0.00
   0.00000000   0.00000000  -0.00276405          0.00      0.00   -406.61


     Writing output data file template.save

     init_run     :      0.30s CPU      0.34s WALL (       1 calls)
     electrons    :      1.91s CPU      1.95s WALL (       1 calls)
     forces       :      0.08s CPU      0.09s WALL (       1 calls)
     stress       :      0.13s CPU      0.14s WALL (       1 calls)

     Called by init_run:
     wfcinit      :      0.06s CPU      0.06s WALL (       1 calls)
     potinit      :      0.14s CPU      0.15s WALL (       1 calls)

     Called by electrons:
     c_bands      :      0.83s CPU      0.86s WALL (       7 calls)
     sum_band     :      0.17s CPU      0.17s WALL (       7 calls)
     v_of_rho     :      0.06s CPU      0.06s WALL (       8 calls)
     newd         :      0.03s CPU      0.04s WALL (       8 calls)
     PAW_pot      :      0.92s CPU      0.95s WALL (       8 calls)
     mix_rho      :      0.01s CPU      0.01s WALL (       7 calls)

     Called by c_bands:
     init_us_2    :      0.00s CPU      0.01s WALL (      68 calls)
     cegterg      :      0.82s CPU      0.84s WALL (      28 calls)

     Called by sum_band:
     sum_band:bec :      0.00s CPU      0.00s WALL (      28 calls)
     addusdens    :      0.04s CPU      0.04s WALL (       7 calls)

     Called by *egterg:
     h_psi        :      0.62s CPU      0.65s WALL (     110 calls)
     s_psi        :      0.03s CPU      0.03s WALL (     110 calls)
     g_psi        :      0.00s CPU      0.00s WALL (      78 calls)
     cdiaghg      :      0.15s CPU      0.11s WALL (     106 calls)

     Called by h_psi:
     h_psi:pot    :      0.62s CPU      0.65s WALL (     110 calls)
     h_psi:calbec :      0.03s CPU      0.04s WALL (     110 calls)
     vloc_psi     :      0.57s CPU      0.58s WALL (     110 calls)
     add_vuspsi   :      0.02s CPU      0.03s WALL (     110 calls)

     General routines
     calbec       :      0.04s CPU      0.06s WALL (     158 calls)
     fft          :      0.05s CPU      0.05s WALL (     149 calls)
     ffts         :      0.01s CPU      0.01s WALL (      15 calls)
     fftw         :      0.62s CPU      0.64s WALL (    3846 calls)
     interpolate  :      0.01s CPU      0.01s WALL (      15 calls)
     davcio       :      0.00s CPU      0.00s WALL (       4 calls)

     Parallel routines
     fft_scatter  :      0.20s CPU      0.20s WALL (    4010 calls)

     PWSCF        :     2.72s CPU         2.90s WALL


   This run was terminated on:  12:49:12   9Jun2017            

=------------------------------------------------------------------------------=
   JOB DONE.
=------------------------------------------------------------------------------=
