
     Program PWSCF v.6.0 (svn rev. 13079) starts on  9Jun2017 at 12:48:10 

     This program is part of the open-source Quantum ESPRESSO suite
     for quantum simulation of materials; please cite
         "P. Giannozzi et al., J. Phys.:Condens. Matter 21 395502 (2009);
          URL http://www.quantum-espresso.org", 
     in publications or presentations arising from this work. More details at
     http://www.quantum-espresso.org/quote

     Parallel version (MPI), running on     4 processors
     R & G space division:  proc/nbgrp/npool/nimage =       4
     Waiting for input...
     Reading input from standard input
Warning: card &IONS ignored
Warning: card ION_DYNAMICS='BFGS', ignored
Warning: card / ignored
Warning: card &CELL ignored
Warning: card CELL_DYNAMICS='BFGS', ignored
Warning: card PRESS = 0.0, ignored
Warning: card CELL_FACTOR = 2.0, ignored
Warning: card / ignored

     Current dimensions of program PWSCF are:
     Max number of different atomic species (ntypx) = 10
     Max number of k-points (npk) =  40000
     Max angular momentum in pseudopotentials (lmaxx) =  3
               file C.pbe-n-kjpaw_psl.1.0.0.UPF: wavefunction(s)  2S 2P renormalized

     Subspace diagonalization in iterative solution of the eigenvalue problem:
     a serial algorithm will be used

     Found symmetry operation: I + ( -0.5000 -0.5000  0.0000)
     This is a supercell, fractional translations are disabled

     Parallelization info
     --------------------
     sticks:   dense  smooth     PW     G-vecs:    dense   smooth      PW
     Min         167     118     35                 3259     1880     326
     Max         171     119     37                 3260     1881     329
     Sum         673     473    145                13037     7521    1309



     bravais-lattice index     =            0
     lattice parameter (alat)  =       6.7508  a.u.
     unit-cell volume          =     272.1976 (a.u.)^3
     number of atoms/cell      =            8
     number of atomic types    =            1
     number of electrons       =        32.00
     number of Kohn-Sham states=           20
     kinetic-energy cutoff     =      35.0000  Ry
     charge density cutoff     =     200.0000  Ry
     convergence threshold     =      1.0E-06
     mixing beta               =       0.3000
     number of iterations used =           10  TF        mixing
     Exchange-correlation      =  SLA  PW   PBX  PBC ( 1  4  3  4 0 0)

     celldm(1)=   6.750826  celldm(2)=   0.000000  celldm(3)=   0.000000
     celldm(4)=   0.000000  celldm(5)=   0.000000  celldm(6)=   0.000000

     crystal axes: (cart. coord. in units of alat)
               a(1) = (   0.960000   0.000000   0.000000 )  
               a(2) = (   0.000000   0.960000   0.000000 )  
               a(3) = (   0.000000   0.000000   0.960000 )  

     reciprocal axes: (cart. coord. in units 2 pi/alat)
               b(1) = (  1.041667  0.000000  0.000000 )  
               b(2) = (  0.000000  1.041667  0.000000 )  
               b(3) = (  0.000000  0.000000  1.041667 )  


     PseudoPot. # 1 for  C read from file:
     /home/ben/espresso/pp/C.pbe-n-kjpaw_psl.1.0.0.UPF
     MD5 check sum: 151efd6a948e5eaef53e53bb29d01b27
     Pseudo is Projector augmented-wave + core cor, Zval =  4.0
     Generated using "atomic" code by A. Dal Corso  v.5.1
     Shape of augmentation charge: PSQ
     Using radial grid of 1073 points,  4 beta functions with: 
                l(1) =   0
                l(2) =   0
                l(3) =   1
                l(4) =   1
     Q(r) pseudized with 0 coefficients 


     atomic species   valence    mass     pseudopotential
        C              4.00    12.00000      C( 1.00)

     24 Sym. Ops. (no inversion) found



   Cartesian axes

     site n.     atom                  positions (alat units)
         1           C   tau(   1) = (   0.0000000   0.0000000   0.0000000  )
         2           C   tau(   2) = (   0.4800000   0.4800000   0.0000000  )
         3           C   tau(   3) = (   0.4800000   0.0000000   0.4800000  )
         4           C   tau(   4) = (   0.0000000   0.4800000   0.4800000  )
         5           C   tau(   5) = (   0.2400000   0.2400000   0.2400000  )
         6           C   tau(   6) = (   0.7200000   0.7200000   0.2400000  )
         7           C   tau(   7) = (   0.2400000   0.7200000   0.7200000  )
         8           C   tau(   8) = (   0.7200000   0.2400000   0.7200000  )

     number of k points=     4  Marzari-Vanderbilt smearing, width (Ry)=  0.0200
                       cart. coord. in units 2pi/alat
        k(    1) = (   0.1302083   0.1302083   0.1302083), wk =   0.2500000
        k(    2) = (   0.1302083   0.1302083   0.3906250), wk =   0.7500000
        k(    3) = (   0.1302083   0.3906250   0.3906250), wk =   0.7500000
        k(    4) = (   0.3906250   0.3906250   0.3906250), wk =   0.2500000

     Dense  grid:    13037 G-vectors     FFT dimensions: (  30,  30,  30)

     Smooth grid:     7521 G-vectors     FFT dimensions: (  25,  25,  25)

     Estimated max dynamical RAM per process >       3.38Mb

     Estimated total allocated dynamical RAM >      13.52Mb

     Check: negative/imaginary core charge=   -0.000082    0.000000

     Initial potential from superposition of free atoms

     starting charge   31.99967, renormalised to   32.00000
     Starting wfc are   32 randomized atomic wfcs
     Checking if some PAW data can be deallocated... 

     total cpu time spent up to now is        0.6 secs

     per-process dynamical memory:    16.3 Mb

     Self-consistent Calculation

     iteration #  1     ecut=    35.00 Ry     beta=0.30
     Davidson diagonalization with overlap
     ethr =  1.00E-02,  avg # of iterations =  2.2

     total cpu time spent up to now is        0.9 secs

     total energy              =    -147.51468752 Ry
     Harris-Foulkes estimate   =    -147.63048727 Ry
     estimated scf accuracy    <       0.61015478 Ry

     iteration #  2     ecut=    35.00 Ry     beta=0.30
     Davidson diagonalization with overlap
     ethr =  1.91E-03,  avg # of iterations =  1.0

     total cpu time spent up to now is        1.1 secs

     total energy              =    -147.33990477 Ry
     Harris-Foulkes estimate   =    -147.51866305 Ry
     estimated scf accuracy    <       0.35691726 Ry

     iteration #  3     ecut=    35.00 Ry     beta=0.30
     Davidson diagonalization with overlap
     ethr =  1.12E-03,  avg # of iterations =  3.0

     total cpu time spent up to now is        1.4 secs

     total energy              =    -147.37636484 Ry
     Harris-Foulkes estimate   =    -147.37307031 Ry
     estimated scf accuracy    <       0.00327741 Ry

     iteration #  4     ecut=    35.00 Ry     beta=0.30
     Davidson diagonalization with overlap
     ethr =  1.02E-05,  avg # of iterations =  6.2

     total cpu time spent up to now is        1.7 secs

     total energy              =    -147.37758353 Ry
     Harris-Foulkes estimate   =    -147.37741567 Ry
     estimated scf accuracy    <       0.00012937 Ry

     iteration #  5     ecut=    35.00 Ry     beta=0.30
     Davidson diagonalization with overlap
     ethr =  4.04E-07,  avg # of iterations =  4.0

     total cpu time spent up to now is        1.9 secs

     total energy              =    -147.37755805 Ry
     Harris-Foulkes estimate   =    -147.37760907 Ry
     estimated scf accuracy    <       0.00000622 Ry

     iteration #  6     ecut=    35.00 Ry     beta=0.30
     Davidson diagonalization with overlap
     ethr =  1.94E-08,  avg # of iterations =  2.0

     total cpu time spent up to now is        2.2 secs

     total energy              =    -147.37756332 Ry
     Harris-Foulkes estimate   =    -147.37756138 Ry
     estimated scf accuracy    <       0.00000631 Ry

     iteration #  7     ecut=    35.00 Ry     beta=0.30
     Davidson diagonalization with overlap
     ethr =  1.94E-08,  avg # of iterations =  2.0

     total cpu time spent up to now is        2.4 secs

     End of self-consistent calculation

          k = 0.1302 0.1302 0.1302 (   952 PWs)   bands (ev):

    -7.0757   0.0956   0.0957   0.0957   4.2616   4.2616   4.2616   7.3552
     7.3552   7.3552   8.9659   8.9659   8.9659  12.9556  14.8573  14.8573
    20.8633  20.8633  20.8633  22.5054

          k = 0.1302 0.1302 0.3906 (   950 PWs)   bands (ev):

    -5.8369  -3.4030   0.9898   0.9898   3.6018   3.6018   6.2559   6.2559
     7.5311   8.4577   8.4577   9.8706  10.0560  10.1496  12.3533  13.4323
    21.1426  21.8629  23.6016  23.6016

          k = 0.1302 0.3906 0.3906 (   953 PWs)   bands (ev):

    -4.6154  -2.2393  -2.2392  -0.1293   2.9449   4.9086   4.9086   7.0962
     7.1502   8.7111   8.7111  10.7753  10.8903  11.0380  11.0380  13.5478
    22.8643  24.1105  24.1105  24.3249

          k = 0.3906 0.3906 0.3906 (   958 PWs)   bands (ev):

    -3.4202  -1.2164  -1.2164  -1.2164   1.8294   1.8294   1.8294   3.9587
    11.0523  11.0523  11.0523  11.6561  11.6561  11.6561  12.7822  12.7822
    23.6959  23.6959  23.6959  24.5392

     the Fermi energy is    16.9076 ev

!    total energy              =    -147.37756550 Ry
     Harris-Foulkes estimate   =    -147.37756407 Ry
     estimated scf accuracy    <       0.00000011 Ry

     total all-electron energy =      -609.490347 Ry

     The total energy is the sum of the following terms:

     one-electron contribution =      39.38943580 Ry
     hartree contribution      =       7.28337073 Ry
     xc contribution           =     -38.32910970 Ry
     ewald contribution        =    -106.39287428 Ry
     one-center paw contrib.   =     -49.32838805 Ry
     smearing contrib. (-TS)   =       0.00000000 Ry

     convergence has been achieved in   7 iterations

     Forces acting on atoms (Ry/au):

     atom    1 type  1   force =     0.00000000    0.00000000    0.00000000
     atom    2 type  1   force =     0.00000000    0.00000000    0.00000000
     atom    3 type  1   force =     0.00000000    0.00000000    0.00000000
     atom    4 type  1   force =     0.00000000    0.00000000    0.00000000
     atom    5 type  1   force =    -0.00000179   -0.00000179   -0.00000179
     atom    6 type  1   force =     0.00000179    0.00000179   -0.00000179
     atom    7 type  1   force =    -0.00000179    0.00000179    0.00000179
     atom    8 type  1   force =     0.00000179   -0.00000179    0.00000179

     Total force =     0.000006     Total SCF correction =     0.000040
     SCF correction compared to forces is large: reduce conv_thr to get better values


     entering subroutine stress ...

          total   stress  (Ry/bohr**3)                   (kbar)     P=  604.62
   0.00411015   0.00000000   0.00000000        604.62      0.00      0.00
   0.00000000   0.00411015   0.00000000          0.00    604.62      0.00
   0.00000000   0.00000000   0.00411015          0.00      0.00    604.62


     Writing output data file template.save

     init_run     :      0.32s CPU      0.33s WALL (       1 calls)
     electrons    :      1.73s CPU      1.74s WALL (       1 calls)
     forces       :      0.07s CPU      0.07s WALL (       1 calls)
     stress       :      0.09s CPU      0.09s WALL (       1 calls)

     Called by init_run:
     wfcinit      :      0.06s CPU      0.05s WALL (       1 calls)
     potinit      :      0.14s CPU      0.15s WALL (       1 calls)

     Called by electrons:
     c_bands      :      0.63s CPU      0.64s WALL (       7 calls)
     sum_band     :      0.13s CPU      0.13s WALL (       7 calls)
     v_of_rho     :      0.06s CPU      0.06s WALL (       8 calls)
     newd         :      0.03s CPU      0.03s WALL (       8 calls)
     PAW_pot      :      1.00s CPU      1.00s WALL (       8 calls)
     mix_rho      :      0.01s CPU      0.01s WALL (       7 calls)

     Called by c_bands:
     init_us_2    :      0.00s CPU      0.01s WALL (      68 calls)
     cegterg      :      0.62s CPU      0.62s WALL (      28 calls)

     Called by sum_band:
     sum_band:bec :      0.00s CPU      0.00s WALL (      28 calls)
     addusdens    :      0.03s CPU      0.03s WALL (       7 calls)

     Called by *egterg:
     h_psi        :      0.44s CPU      0.46s WALL (     114 calls)
     s_psi        :      0.02s CPU      0.02s WALL (     114 calls)
     g_psi        :      0.00s CPU      0.00s WALL (      82 calls)
     cdiaghg      :      0.12s CPU      0.10s WALL (     110 calls)

     Called by h_psi:
     h_psi:pot    :      0.44s CPU      0.45s WALL (     114 calls)
     h_psi:calbec :      0.04s CPU      0.03s WALL (     114 calls)
     vloc_psi     :      0.39s CPU      0.40s WALL (     114 calls)
     add_vuspsi   :      0.01s CPU      0.02s WALL (     114 calls)

     General routines
     calbec       :      0.05s CPU      0.05s WALL (     162 calls)
     fft          :      0.06s CPU      0.07s WALL (     149 calls)
     ffts         :      0.00s CPU      0.00s WALL (      15 calls)
     fftw         :      0.43s CPU      0.44s WALL (    3804 calls)
     interpolate  :      0.01s CPU      0.01s WALL (      15 calls)
     davcio       :      0.00s CPU      0.00s WALL (       4 calls)

     Parallel routines
     fft_scatter  :      0.13s CPU      0.15s WALL (    3968 calls)

     PWSCF        :     2.50s CPU         2.59s WALL


   This run was terminated on:  12:48:13   9Jun2017            

=------------------------------------------------------------------------------=
   JOB DONE.
=------------------------------------------------------------------------------=
