
     Program PWSCF v.6.0 (svn rev. 13079) starts on  9Jun2017 at 12:49:19 

     This program is part of the open-source Quantum ESPRESSO suite
     for quantum simulation of materials; please cite
         "P. Giannozzi et al., J. Phys.:Condens. Matter 21 395502 (2009);
          URL http://www.quantum-espresso.org", 
     in publications or presentations arising from this work. More details at
     http://www.quantum-espresso.org/quote

     Parallel version (MPI), running on     4 processors
     R & G space division:  proc/nbgrp/npool/nimage =       4
     Waiting for input...
     Reading input from standard input
Warning: card &IONS ignored
Warning: card ION_DYNAMICS='BFGS', ignored
Warning: card / ignored
Warning: card &CELL ignored
Warning: card CELL_DYNAMICS='BFGS', ignored
Warning: card PRESS = 0.0, ignored
Warning: card CELL_FACTOR = 2.0, ignored
Warning: card / ignored

     Current dimensions of program PWSCF are:
     Max number of different atomic species (ntypx) = 10
     Max number of k-points (npk) =  40000
     Max angular momentum in pseudopotentials (lmaxx) =  3
               file C.pbe-n-kjpaw_psl.1.0.0.UPF: wavefunction(s)  2S 2P renormalized

     Subspace diagonalization in iterative solution of the eigenvalue problem:
     a serial algorithm will be used

     Found symmetry operation: I + ( -0.5000 -0.5000  0.0000)
     This is a supercell, fractional translations are disabled

     Parallelization info
     --------------------
     sticks:   dense  smooth     PW     G-vecs:    dense   smooth      PW
     Min         198     139     44                 4266     2484     411
     Max         199     141     45                 4271     2485     412
     Sum         793     561    177                17071     9939    1647



     bravais-lattice index     =            0
     lattice parameter (alat)  =       6.7508  a.u.
     unit-cell volume          =     356.1546 (a.u.)^3
     number of atoms/cell      =            8
     number of atomic types    =            1
     number of electrons       =        32.00
     number of Kohn-Sham states=           20
     kinetic-energy cutoff     =      35.0000  Ry
     charge density cutoff     =     200.0000  Ry
     convergence threshold     =      1.0E-06
     mixing beta               =       0.3000
     number of iterations used =           10  TF        mixing
     Exchange-correlation      =  SLA  PW   PBX  PBC ( 1  4  3  4 0 0)

     celldm(1)=   6.750826  celldm(2)=   0.000000  celldm(3)=   0.000000
     celldm(4)=   0.000000  celldm(5)=   0.000000  celldm(6)=   0.000000

     crystal axes: (cart. coord. in units of alat)
               a(1) = (   1.050000   0.000000   0.000000 )  
               a(2) = (   0.000000   1.050000   0.000000 )  
               a(3) = (   0.000000   0.000000   1.050000 )  

     reciprocal axes: (cart. coord. in units 2 pi/alat)
               b(1) = (  0.952381  0.000000  0.000000 )  
               b(2) = (  0.000000  0.952381  0.000000 )  
               b(3) = (  0.000000  0.000000  0.952381 )  


     PseudoPot. # 1 for  C read from file:
     /home/ben/espresso/pp/C.pbe-n-kjpaw_psl.1.0.0.UPF
     MD5 check sum: 151efd6a948e5eaef53e53bb29d01b27
     Pseudo is Projector augmented-wave + core cor, Zval =  4.0
     Generated using "atomic" code by A. Dal Corso  v.5.1
     Shape of augmentation charge: PSQ
     Using radial grid of 1073 points,  4 beta functions with: 
                l(1) =   0
                l(2) =   0
                l(3) =   1
                l(4) =   1
     Q(r) pseudized with 0 coefficients 


     atomic species   valence    mass     pseudopotential
        C              4.00    12.00000      C( 1.00)

     24 Sym. Ops. (no inversion) found



   Cartesian axes

     site n.     atom                  positions (alat units)
         1           C   tau(   1) = (   0.0000000   0.0000000   0.0000000  )
         2           C   tau(   2) = (   0.5250000   0.5250000   0.0000000  )
         3           C   tau(   3) = (   0.5250000   0.0000000   0.5250000  )
         4           C   tau(   4) = (   0.0000000   0.5250000   0.5250000  )
         5           C   tau(   5) = (   0.2625000   0.2625000   0.2625000  )
         6           C   tau(   6) = (   0.7875000   0.7875000   0.2625000  )
         7           C   tau(   7) = (   0.2625000   0.7875000   0.7875000  )
         8           C   tau(   8) = (   0.7875000   0.2625000   0.7875000  )

     number of k points=     4  Marzari-Vanderbilt smearing, width (Ry)=  0.0200
                       cart. coord. in units 2pi/alat
        k(    1) = (   0.1190476   0.1190476   0.1190476), wk =   0.2500000
        k(    2) = (   0.1190476   0.1190476   0.3571429), wk =   0.7500000
        k(    3) = (   0.1190476   0.3571429   0.3571429), wk =   0.7500000
        k(    4) = (   0.3571429   0.3571429   0.3571429), wk =   0.2500000

     Dense  grid:    17071 G-vectors     FFT dimensions: (  32,  32,  32)

     Smooth grid:     9939 G-vectors     FFT dimensions: (  27,  27,  27)

     Estimated max dynamical RAM per process >       4.27Mb

     Estimated total allocated dynamical RAM >      17.09Mb

     Check: negative/imaginary core charge=   -0.000080    0.000000

     Initial potential from superposition of free atoms

     starting charge   31.99967, renormalised to   32.00000
     Starting wfc are   32 randomized atomic wfcs
     Checking if some PAW data can be deallocated... 

     total cpu time spent up to now is        0.6 secs

     per-process dynamical memory:    16.7 Mb

     Self-consistent Calculation

     iteration #  1     ecut=    35.00 Ry     beta=0.30
     Davidson diagonalization with overlap
     ethr =  1.00E-02,  avg # of iterations =  2.2

     total cpu time spent up to now is        0.9 secs

     total energy              =    -147.42596796 Ry
     Harris-Foulkes estimate   =    -147.47468742 Ry
     estimated scf accuracy    <       0.32471508 Ry

     iteration #  2     ecut=    35.00 Ry     beta=0.30
     Davidson diagonalization with overlap
     ethr =  1.01E-03,  avg # of iterations =  1.0

     total cpu time spent up to now is        1.2 secs

     total energy              =    -147.34875767 Ry
     Harris-Foulkes estimate   =    -147.42845962 Ry
     estimated scf accuracy    <       0.19387286 Ry

     iteration #  3     ecut=    35.00 Ry     beta=0.30
     Davidson diagonalization with overlap
     ethr =  6.06E-04,  avg # of iterations =  2.0

     total cpu time spent up to now is        1.4 secs

     total energy              =    -147.36659965 Ry
     Harris-Foulkes estimate   =    -147.36378586 Ry
     estimated scf accuracy    <       0.00242452 Ry

     iteration #  4     ecut=    35.00 Ry     beta=0.30
     Davidson diagonalization with overlap
     ethr =  7.58E-06,  avg # of iterations =  7.5

     total cpu time spent up to now is        1.8 secs

     total energy              =    -147.36761695 Ry
     Harris-Foulkes estimate   =    -147.36726308 Ry
     estimated scf accuracy    <       0.00024166 Ry

     iteration #  5     ecut=    35.00 Ry     beta=0.30
     Davidson diagonalization with overlap
     ethr =  7.55E-07,  avg # of iterations =  2.0

     total cpu time spent up to now is        2.0 secs

     total energy              =    -147.36764439 Ry
     Harris-Foulkes estimate   =    -147.36766993 Ry
     estimated scf accuracy    <       0.00000899 Ry

     iteration #  6     ecut=    35.00 Ry     beta=0.30
     Davidson diagonalization with overlap
     ethr =  2.81E-08,  avg # of iterations =  2.2

     total cpu time spent up to now is        2.3 secs

     total energy              =    -147.36765063 Ry
     Harris-Foulkes estimate   =    -147.36764633 Ry
     estimated scf accuracy    <       0.00000236 Ry

     iteration #  7     ecut=    35.00 Ry     beta=0.30
     Davidson diagonalization with overlap
     ethr =  7.39E-09,  avg # of iterations =  2.0

     total cpu time spent up to now is        2.5 secs

     End of self-consistent calculation

          k = 0.1190 0.1190 0.1190 (  1258 PWs)   bands (ev):

    -8.3888  -2.5183  -2.5182  -2.5182   0.8411   0.8412   0.8412   4.4664
     4.4665   4.4665   5.6702   5.6702   5.6702   8.6197  10.2322  10.2322
    15.3986  15.3986  15.3986  16.6972

          k = 0.1190 0.1190 0.3571 (  1240 PWs)   bands (ev):

    -7.3638  -5.3626  -1.9512  -1.9511   0.4940   0.4940   3.4798   3.4798
     3.8257   5.3376   5.3376   6.1754   6.1834   6.6081   8.3310   8.9220
    15.5272  16.1279  17.6863  17.6863

          k = 0.1190 0.3571 0.3571 (  1242 PWs)   bands (ev):

    -6.3652  -4.4502  -4.4502  -2.8920   0.3624   1.8607   1.8608   3.7743
     3.9409   5.2161   5.2162   6.9463   7.1581   7.2539   7.2540   9.1895
    17.0446  18.0403  18.0403  18.1935

          k = 0.3571 0.3571 0.3571 (  1244 PWs)   bands (ev):

    -5.4201  -3.7912  -3.7911  -3.7911  -0.3924  -0.3923  -0.3923   1.2076
     7.0831   7.0832   7.0832   7.7380   7.7380   7.7380   8.5946   8.5946
    17.6585  17.6586  17.6586  17.6694

     the Fermi energy is    11.8201 ev

!    total energy              =    -147.36765248 Ry
     Harris-Foulkes estimate   =    -147.36765127 Ry
     estimated scf accuracy    <       0.00000005 Ry

     total all-electron energy =      -609.480434 Ry

     The total energy is the sum of the following terms:

     one-electron contribution =      27.30623561 Ry
     hartree contribution      =       8.40866028 Ry
     xc contribution           =     -36.52308907 Ry
     ewald contribution        =     -97.27348477 Ry
     one-center paw contrib.   =     -49.28597453 Ry
     smearing contrib. (-TS)   =       0.00000000 Ry

     convergence has been achieved in   7 iterations

     Forces acting on atoms (Ry/au):

     atom    1 type  1   force =     0.00000000    0.00000000    0.00000000
     atom    2 type  1   force =     0.00000000    0.00000000    0.00000000
     atom    3 type  1   force =     0.00000000    0.00000000    0.00000000
     atom    4 type  1   force =     0.00000000    0.00000000    0.00000000
     atom    5 type  1   force =     0.00000226    0.00000226    0.00000226
     atom    6 type  1   force =    -0.00000226   -0.00000226    0.00000226
     atom    7 type  1   force =     0.00000226   -0.00000226   -0.00000226
     atom    8 type  1   force =    -0.00000226    0.00000226   -0.00000226

     Total force =     0.000008     Total SCF correction =     0.000005
     SCF correction compared to forces is large: reduce conv_thr to get better values


     entering subroutine stress ...

          total   stress  (Ry/bohr**3)                   (kbar)     P= -514.89
  -0.00350017   0.00000000   0.00000000       -514.89      0.00      0.00
   0.00000000  -0.00350017   0.00000000          0.00   -514.89      0.00
   0.00000000   0.00000000  -0.00350017          0.00      0.00   -514.89


     Writing output data file template.save

     init_run     :      0.33s CPU      0.34s WALL (       1 calls)
     electrons    :      1.90s CPU      1.91s WALL (       1 calls)
     forces       :      0.09s CPU      0.09s WALL (       1 calls)
     stress       :      0.11s CPU      0.11s WALL (       1 calls)

     Called by init_run:
     wfcinit      :      0.08s CPU      0.07s WALL (       1 calls)
     potinit      :      0.14s CPU      0.15s WALL (       1 calls)

     Called by electrons:
     c_bands      :      0.84s CPU      0.85s WALL (       7 calls)
     sum_band     :      0.16s CPU      0.16s WALL (       7 calls)
     v_of_rho     :      0.06s CPU      0.06s WALL (       8 calls)
     newd         :      0.05s CPU      0.04s WALL (       8 calls)
     PAW_pot      :      0.91s CPU      0.92s WALL (       8 calls)
     mix_rho      :      0.01s CPU      0.01s WALL (       7 calls)

     Called by c_bands:
     init_us_2    :      0.02s CPU      0.01s WALL (      68 calls)
     cegterg      :      0.82s CPU      0.83s WALL (      28 calls)

     Called by sum_band:
     sum_band:bec :      0.00s CPU      0.00s WALL (      28 calls)
     addusdens    :      0.04s CPU      0.04s WALL (       7 calls)

     Called by *egterg:
     h_psi        :      0.67s CPU      0.66s WALL (     108 calls)
     s_psi        :      0.01s CPU      0.03s WALL (     108 calls)
     g_psi        :      0.00s CPU      0.00s WALL (      76 calls)
     cdiaghg      :      0.09s CPU      0.11s WALL (     104 calls)

     Called by h_psi:
     h_psi:pot    :      0.67s CPU      0.65s WALL (     108 calls)
     h_psi:calbec :      0.03s CPU      0.04s WALL (     108 calls)
     vloc_psi     :      0.61s CPU      0.59s WALL (     108 calls)
     add_vuspsi   :      0.03s CPU      0.03s WALL (     108 calls)

     General routines
     calbec       :      0.04s CPU      0.06s WALL (     156 calls)
     fft          :      0.05s CPU      0.05s WALL (     149 calls)
     ffts         :      0.00s CPU      0.01s WALL (      15 calls)
     fftw         :      0.64s CPU      0.65s WALL (    3838 calls)
     interpolate  :      0.01s CPU      0.01s WALL (      15 calls)
     davcio       :      0.00s CPU      0.00s WALL (       4 calls)

     Parallel routines
     fft_scatter  :      0.21s CPU      0.23s WALL (    4002 calls)

     PWSCF        :     2.72s CPU         2.81s WALL


   This run was terminated on:  12:49:22   9Jun2017            

=------------------------------------------------------------------------------=
   JOB DONE.
=------------------------------------------------------------------------------=
