
     Program PWSCF v.6.0 (svn rev. 13079) starts on  9Jun2017 at 12:48:13 

     This program is part of the open-source Quantum ESPRESSO suite
     for quantum simulation of materials; please cite
         "P. Giannozzi et al., J. Phys.:Condens. Matter 21 395502 (2009);
          URL http://www.quantum-espresso.org", 
     in publications or presentations arising from this work. More details at
     http://www.quantum-espresso.org/quote

     Parallel version (MPI), running on     4 processors
     R & G space division:  proc/nbgrp/npool/nimage =       4
     Waiting for input...
     Reading input from standard input
Warning: card &IONS ignored
Warning: card ION_DYNAMICS='BFGS', ignored
Warning: card / ignored
Warning: card &CELL ignored
Warning: card CELL_DYNAMICS='BFGS', ignored
Warning: card PRESS = 0.0, ignored
Warning: card CELL_FACTOR = 2.0, ignored
Warning: card / ignored

     Current dimensions of program PWSCF are:
     Max number of different atomic species (ntypx) = 10
     Max number of k-points (npk) =  40000
     Max angular momentum in pseudopotentials (lmaxx) =  3
               file C.pbe-n-kjpaw_psl.1.0.0.UPF: wavefunction(s)  2S 2P renormalized

     Subspace diagonalization in iterative solution of the eigenvalue problem:
     a serial algorithm will be used

     Found symmetry operation: I + ( -0.5000 -0.5000  0.0000)
     This is a supercell, fractional translations are disabled

     Parallelization info
     --------------------
     sticks:   dense  smooth     PW     G-vecs:    dense   smooth      PW
     Min         168     120     36                 3300     1952     338
     Max         169     121     37                 3302     1953     341
     Sum         673     481    145                13205     7809    1357



     bravais-lattice index     =            0
     lattice parameter (alat)  =       6.7508  a.u.
     unit-cell volume          =     276.4729 (a.u.)^3
     number of atoms/cell      =            8
     number of atomic types    =            1
     number of electrons       =        32.00
     number of Kohn-Sham states=           20
     kinetic-energy cutoff     =      35.0000  Ry
     charge density cutoff     =     200.0000  Ry
     convergence threshold     =      1.0E-06
     mixing beta               =       0.3000
     number of iterations used =           10  TF        mixing
     Exchange-correlation      =  SLA  PW   PBX  PBC ( 1  4  3  4 0 0)

     celldm(1)=   6.750826  celldm(2)=   0.000000  celldm(3)=   0.000000
     celldm(4)=   0.000000  celldm(5)=   0.000000  celldm(6)=   0.000000

     crystal axes: (cart. coord. in units of alat)
               a(1) = (   0.965000   0.000000   0.000000 )  
               a(2) = (   0.000000   0.965000   0.000000 )  
               a(3) = (   0.000000   0.000000   0.965000 )  

     reciprocal axes: (cart. coord. in units 2 pi/alat)
               b(1) = (  1.036269  0.000000  0.000000 )  
               b(2) = (  0.000000  1.036269  0.000000 )  
               b(3) = (  0.000000  0.000000  1.036269 )  


     PseudoPot. # 1 for  C read from file:
     /home/ben/espresso/pp/C.pbe-n-kjpaw_psl.1.0.0.UPF
     MD5 check sum: 151efd6a948e5eaef53e53bb29d01b27
     Pseudo is Projector augmented-wave + core cor, Zval =  4.0
     Generated using "atomic" code by A. Dal Corso  v.5.1
     Shape of augmentation charge: PSQ
     Using radial grid of 1073 points,  4 beta functions with: 
                l(1) =   0
                l(2) =   0
                l(3) =   1
                l(4) =   1
     Q(r) pseudized with 0 coefficients 


     atomic species   valence    mass     pseudopotential
        C              4.00    12.00000      C( 1.00)

     24 Sym. Ops. (no inversion) found



   Cartesian axes

     site n.     atom                  positions (alat units)
         1           C   tau(   1) = (   0.0000000   0.0000000   0.0000000  )
         2           C   tau(   2) = (   0.4825000   0.4825000   0.0000000  )
         3           C   tau(   3) = (   0.4825000   0.0000000   0.4825000  )
         4           C   tau(   4) = (   0.0000000   0.4825000   0.4825000  )
         5           C   tau(   5) = (   0.2412500   0.2412500   0.2412500  )
         6           C   tau(   6) = (   0.7237500   0.7237500   0.2412500  )
         7           C   tau(   7) = (   0.2412500   0.7237500   0.7237500  )
         8           C   tau(   8) = (   0.7237500   0.2412500   0.7237500  )

     number of k points=     4  Marzari-Vanderbilt smearing, width (Ry)=  0.0200
                       cart. coord. in units 2pi/alat
        k(    1) = (   0.1295337   0.1295337   0.1295337), wk =   0.2500000
        k(    2) = (   0.1295337   0.1295337   0.3886010), wk =   0.7500000
        k(    3) = (   0.1295337   0.3886010   0.3886010), wk =   0.7500000
        k(    4) = (   0.3886010   0.3886010   0.3886010), wk =   0.2500000

     Dense  grid:    13205 G-vectors     FFT dimensions: (  30,  30,  30)

     Smooth grid:     7809 G-vectors     FFT dimensions: (  25,  25,  25)

     Estimated max dynamical RAM per process >       3.41Mb

     Estimated total allocated dynamical RAM >      13.65Mb

     Check: negative/imaginary core charge=   -0.000082    0.000000

     Initial potential from superposition of free atoms

     starting charge   31.99967, renormalised to   32.00000
     Starting wfc are   32 randomized atomic wfcs
     Checking if some PAW data can be deallocated... 

     total cpu time spent up to now is        0.6 secs

     per-process dynamical memory:    16.3 Mb

     Self-consistent Calculation

     iteration #  1     ecut=    35.00 Ry     beta=0.30
     Davidson diagonalization with overlap
     ethr =  1.00E-02,  avg # of iterations =  2.2

     total cpu time spent up to now is        0.9 secs

     total energy              =    -147.52655435 Ry
     Harris-Foulkes estimate   =    -147.63753229 Ry
     estimated scf accuracy    <       0.59016624 Ry

     iteration #  2     ecut=    35.00 Ry     beta=0.30
     Davidson diagonalization with overlap
     ethr =  1.84E-03,  avg # of iterations =  1.0

     total cpu time spent up to now is        1.1 secs

     total energy              =    -147.35863510 Ry
     Harris-Foulkes estimate   =    -147.53039610 Ry
     estimated scf accuracy    <       0.34556348 Ry

     iteration #  3     ecut=    35.00 Ry     beta=0.30
     Davidson diagonalization with overlap
     ethr =  1.08E-03,  avg # of iterations =  2.8

     total cpu time spent up to now is        1.3 secs

     total energy              =    -147.39380374 Ry
     Harris-Foulkes estimate   =    -147.39053033 Ry
     estimated scf accuracy    <       0.00323223 Ry

     iteration #  4     ecut=    35.00 Ry     beta=0.30
     Davidson diagonalization with overlap
     ethr =  1.01E-05,  avg # of iterations =  7.2

     total cpu time spent up to now is        1.7 secs

     total energy              =    -147.39500683 Ry
     Harris-Foulkes estimate   =    -147.39481396 Ry
     estimated scf accuracy    <       0.00014408 Ry

     iteration #  5     ecut=    35.00 Ry     beta=0.30
     Davidson diagonalization with overlap
     ethr =  4.50E-07,  avg # of iterations =  2.5

     total cpu time spent up to now is        1.9 secs

     total energy              =    -147.39498399 Ry
     Harris-Foulkes estimate   =    -147.39503632 Ry
     estimated scf accuracy    <       0.00000667 Ry

     iteration #  6     ecut=    35.00 Ry     beta=0.30
     Davidson diagonalization with overlap
     ethr =  2.08E-08,  avg # of iterations =  2.0

     total cpu time spent up to now is        2.2 secs

     total energy              =    -147.39499007 Ry
     Harris-Foulkes estimate   =    -147.39498760 Ry
     estimated scf accuracy    <       0.00000675 Ry

     iteration #  7     ecut=    35.00 Ry     beta=0.30
     Davidson diagonalization with overlap
     ethr =  2.08E-08,  avg # of iterations =  2.0

     total cpu time spent up to now is        2.5 secs

     End of self-consistent calculation

          k = 0.1295 0.1295 0.1295 (   964 PWs)   bands (ev):

    -7.1621  -0.0699  -0.0699  -0.0699   4.0447   4.0447   4.0447   7.1711
     7.1711   7.1711   8.7571   8.7571   8.7571  12.6730  14.5579  14.5579
    20.5194  20.5194  20.5194  22.1357

          k = 0.1295 0.1295 0.3886 (   954 PWs)   bands (ev):

    -5.9360  -3.5284   0.8030   0.8030   3.4090   3.4091   6.0725   6.0726
     7.3012   8.2586   8.2586   9.6314   9.8132   9.9249  12.0982  13.1448
    20.7872  21.5004  23.2355  23.2355

          k = 0.1295 0.3886 0.3886 (   969 PWs)   bands (ev):

    -4.7279  -2.3796  -2.3796  -0.3047   2.7835   4.7160   4.7160   6.8893
     6.9342   8.4863   8.4863  10.5311  10.6498  10.7967  10.7967  13.2694
    22.5056  23.7340  23.7340  23.9342

          k = 0.3886 0.3886 0.3886 (   970 PWs)   bands (ev):

    -3.5474  -1.3798  -1.3798  -1.3798   1.6867   1.6867   1.6867   3.7820
    10.7976  10.7977  10.7977  11.4052  11.4052  11.4053  12.5157  12.5157
    23.3303  23.3304  23.3304  24.1574

     the Fermi energy is    16.5997 ev

!    total energy              =    -147.39499247 Ry
     Harris-Foulkes estimate   =    -147.39499088 Ry
     estimated scf accuracy    <       0.00000009 Ry

     total all-electron energy =      -609.507774 Ry

     The total energy is the sum of the following terms:

     one-electron contribution =      38.64416316 Ry
     hartree contribution      =       7.34389398 Ry
     xc contribution           =     -38.21662988 Ry
     ewald contribution        =    -105.84161581 Ry
     one-center paw contrib.   =     -49.32480392 Ry
     smearing contrib. (-TS)   =       0.00000000 Ry

     convergence has been achieved in   7 iterations

     Forces acting on atoms (Ry/au):

     atom    1 type  1   force =     0.00000000    0.00000000    0.00000000
     atom    2 type  1   force =     0.00000000    0.00000000    0.00000000
     atom    3 type  1   force =     0.00000000    0.00000000    0.00000000
     atom    4 type  1   force =     0.00000000    0.00000000    0.00000000
     atom    5 type  1   force =    -0.00000174   -0.00000174   -0.00000174
     atom    6 type  1   force =     0.00000174    0.00000174   -0.00000174
     atom    7 type  1   force =    -0.00000174    0.00000174    0.00000174
     atom    8 type  1   force =     0.00000174   -0.00000174    0.00000174

     Total force =     0.000006     Total SCF correction =     0.000031
     SCF correction compared to forces is large: reduce conv_thr to get better values


     entering subroutine stress ...

          total   stress  (Ry/bohr**3)                   (kbar)     P=  503.02
   0.00341948   0.00000000   0.00000000        503.02      0.00      0.00
   0.00000000   0.00341948   0.00000000          0.00    503.02      0.00
   0.00000000   0.00000000   0.00341948          0.00      0.00    503.02


     Writing output data file template.save

     init_run     :      0.28s CPU      0.29s WALL (       1 calls)
     electrons    :      1.84s CPU      1.85s WALL (       1 calls)
     forces       :      0.07s CPU      0.07s WALL (       1 calls)
     stress       :      0.09s CPU      0.09s WALL (       1 calls)

     Called by init_run:
     wfcinit      :      0.04s CPU      0.04s WALL (       1 calls)
     potinit      :      0.13s CPU      0.13s WALL (       1 calls)

     Called by electrons:
     c_bands      :      0.70s CPU      0.72s WALL (       7 calls)
     sum_band     :      0.15s CPU      0.15s WALL (       7 calls)
     v_of_rho     :      0.06s CPU      0.06s WALL (       8 calls)
     newd         :      0.04s CPU      0.04s WALL (       8 calls)
     PAW_pot      :      1.00s CPU      1.00s WALL (       8 calls)
     mix_rho      :      0.00s CPU      0.01s WALL (       7 calls)

     Called by c_bands:
     init_us_2    :      0.01s CPU      0.01s WALL (      68 calls)
     cegterg      :      0.68s CPU      0.70s WALL (      28 calls)

     Called by sum_band:
     sum_band:bec :      0.00s CPU      0.00s WALL (      28 calls)
     addusdens    :      0.04s CPU      0.03s WALL (       7 calls)

     Called by *egterg:
     h_psi        :      0.55s CPU      0.50s WALL (     111 calls)
     s_psi        :      0.02s CPU      0.02s WALL (     111 calls)
     g_psi        :      0.00s CPU      0.00s WALL (      79 calls)
     cdiaghg      :      0.04s CPU      0.11s WALL (     107 calls)

     Called by h_psi:
     h_psi:pot    :      0.55s CPU      0.50s WALL (     111 calls)
     h_psi:calbec :      0.04s CPU      0.04s WALL (     111 calls)
     vloc_psi     :      0.48s CPU      0.44s WALL (     111 calls)
     add_vuspsi   :      0.03s CPU      0.02s WALL (     111 calls)

     General routines
     calbec       :      0.05s CPU      0.05s WALL (     159 calls)
     fft          :      0.10s CPU      0.07s WALL (     149 calls)
     ffts         :      0.00s CPU      0.00s WALL (      15 calls)
     fftw         :      0.51s CPU      0.48s WALL (    3804 calls)
     interpolate  :      0.01s CPU      0.01s WALL (      15 calls)
     davcio       :      0.00s CPU      0.00s WALL (       4 calls)

     Parallel routines
     fft_scatter  :      0.12s CPU      0.15s WALL (    3968 calls)

     PWSCF        :     2.58s CPU         2.69s WALL


   This run was terminated on:  12:48:16   9Jun2017            

=------------------------------------------------------------------------------=
   JOB DONE.
=------------------------------------------------------------------------------=
