
     Program PWSCF v.6.0 (svn rev. 13079) starts on  9Jun2017 at 12:48:16 

     This program is part of the open-source Quantum ESPRESSO suite
     for quantum simulation of materials; please cite
         "P. Giannozzi et al., J. Phys.:Condens. Matter 21 395502 (2009);
          URL http://www.quantum-espresso.org", 
     in publications or presentations arising from this work. More details at
     http://www.quantum-espresso.org/quote

     Parallel version (MPI), running on     4 processors
     R & G space division:  proc/nbgrp/npool/nimage =       4
     Waiting for input...
     Reading input from standard input
Warning: card &IONS ignored
Warning: card ION_DYNAMICS='BFGS', ignored
Warning: card / ignored
Warning: card &CELL ignored
Warning: card CELL_DYNAMICS='BFGS', ignored
Warning: card PRESS = 0.0, ignored
Warning: card CELL_FACTOR = 2.0, ignored
Warning: card / ignored

     Current dimensions of program PWSCF are:
     Max number of different atomic species (ntypx) = 10
     Max number of k-points (npk) =  40000
     Max angular momentum in pseudopotentials (lmaxx) =  3
               file C.pbe-n-kjpaw_psl.1.0.0.UPF: wavefunction(s)  2S 2P renormalized

     Subspace diagonalization in iterative solution of the eigenvalue problem:
     a serial algorithm will be used

     Found symmetry operation: I + ( -0.5000 -0.5000  0.0000)
     This is a supercell, fractional translations are disabled

     Parallelization info
     --------------------
     sticks:   dense  smooth     PW     G-vecs:    dense   smooth      PW
     Min         168     120     36                 3348     1970     338
     Max         169     121     37                 3351     1971     341
     Sum         673     481    145                13397     7881    1357



     bravais-lattice index     =            0
     lattice parameter (alat)  =       6.7508  a.u.
     unit-cell volume          =     280.7927 (a.u.)^3
     number of atoms/cell      =            8
     number of atomic types    =            1
     number of electrons       =        32.00
     number of Kohn-Sham states=           20
     kinetic-energy cutoff     =      35.0000  Ry
     charge density cutoff     =     200.0000  Ry
     convergence threshold     =      1.0E-06
     mixing beta               =       0.3000
     number of iterations used =           10  TF        mixing
     Exchange-correlation      =  SLA  PW   PBX  PBC ( 1  4  3  4 0 0)

     celldm(1)=   6.750826  celldm(2)=   0.000000  celldm(3)=   0.000000
     celldm(4)=   0.000000  celldm(5)=   0.000000  celldm(6)=   0.000000

     crystal axes: (cart. coord. in units of alat)
               a(1) = (   0.970000   0.000000   0.000000 )  
               a(2) = (   0.000000   0.970000   0.000000 )  
               a(3) = (   0.000000   0.000000   0.970000 )  

     reciprocal axes: (cart. coord. in units 2 pi/alat)
               b(1) = (  1.030928  0.000000  0.000000 )  
               b(2) = (  0.000000  1.030928  0.000000 )  
               b(3) = (  0.000000  0.000000  1.030928 )  


     PseudoPot. # 1 for  C read from file:
     /home/ben/espresso/pp/C.pbe-n-kjpaw_psl.1.0.0.UPF
     MD5 check sum: 151efd6a948e5eaef53e53bb29d01b27
     Pseudo is Projector augmented-wave + core cor, Zval =  4.0
     Generated using "atomic" code by A. Dal Corso  v.5.1
     Shape of augmentation charge: PSQ
     Using radial grid of 1073 points,  4 beta functions with: 
                l(1) =   0
                l(2) =   0
                l(3) =   1
                l(4) =   1
     Q(r) pseudized with 0 coefficients 


     atomic species   valence    mass     pseudopotential
        C              4.00    12.00000      C( 1.00)

     24 Sym. Ops. (no inversion) found



   Cartesian axes

     site n.     atom                  positions (alat units)
         1           C   tau(   1) = (   0.0000000   0.0000000   0.0000000  )
         2           C   tau(   2) = (   0.4850000   0.4850000   0.0000000  )
         3           C   tau(   3) = (   0.4850000   0.0000000   0.4850000  )
         4           C   tau(   4) = (   0.0000000   0.4850000   0.4850000  )
         5           C   tau(   5) = (   0.2425000   0.2425000   0.2425000  )
         6           C   tau(   6) = (   0.7275000   0.7275000   0.2425000  )
         7           C   tau(   7) = (   0.2425000   0.7275000   0.7275000  )
         8           C   tau(   8) = (   0.7275000   0.2425000   0.7275000  )

     number of k points=     4  Marzari-Vanderbilt smearing, width (Ry)=  0.0200
                       cart. coord. in units 2pi/alat
        k(    1) = (   0.1288660   0.1288660   0.1288660), wk =   0.2500000
        k(    2) = (   0.1288660   0.1288660   0.3865979), wk =   0.7500000
        k(    3) = (   0.1288660   0.3865979   0.3865979), wk =   0.7500000
        k(    4) = (   0.3865979   0.3865979   0.3865979), wk =   0.2500000

     Dense  grid:    13397 G-vectors     FFT dimensions: (  30,  30,  30)

     Smooth grid:     7881 G-vectors     FFT dimensions: (  25,  25,  25)

     Estimated max dynamical RAM per process >       3.46Mb

     Estimated total allocated dynamical RAM >      13.82Mb

     Check: negative/imaginary core charge=   -0.000081    0.000000

     Initial potential from superposition of free atoms

     starting charge   31.99967, renormalised to   32.00000
     Starting wfc are   32 randomized atomic wfcs
     Checking if some PAW data can be deallocated... 

     total cpu time spent up to now is        0.6 secs

     per-process dynamical memory:    16.3 Mb

     Self-consistent Calculation

     iteration #  1     ecut=    35.00 Ry     beta=0.30
     Davidson diagonalization with overlap
     ethr =  1.00E-02,  avg # of iterations =  2.2

     total cpu time spent up to now is        0.9 secs

     total energy              =    -147.53719897 Ry
     Harris-Foulkes estimate   =    -147.64353761 Ry
     estimated scf accuracy    <       0.57105859 Ry

     iteration #  2     ecut=    35.00 Ry     beta=0.30
     Davidson diagonalization with overlap
     ethr =  1.78E-03,  avg # of iterations =  1.0

     total cpu time spent up to now is        1.1 secs

     total energy              =    -147.37597070 Ry
     Harris-Foulkes estimate   =    -147.54092915 Ry
     estimated scf accuracy    <       0.33459409 Ry

     iteration #  3     ecut=    35.00 Ry     beta=0.30
     Davidson diagonalization with overlap
     ethr =  1.05E-03,  avg # of iterations =  2.8

     total cpu time spent up to now is        1.3 secs

     total energy              =    -147.40993575 Ry
     Harris-Foulkes estimate   =    -147.40665543 Ry
     estimated scf accuracy    <       0.00320678 Ry

     iteration #  4     ecut=    35.00 Ry     beta=0.30
     Davidson diagonalization with overlap
     ethr =  1.00E-05,  avg # of iterations =  7.5

     total cpu time spent up to now is        1.6 secs

     total energy              =    -147.41106402 Ry
     Harris-Foulkes estimate   =    -147.41087907 Ry
     estimated scf accuracy    <       0.00015091 Ry

     iteration #  5     ecut=    35.00 Ry     beta=0.30
     Davidson diagonalization with overlap
     ethr =  4.72E-07,  avg # of iterations =  2.0

     total cpu time spent up to now is        1.9 secs

     total energy              =    -147.41104673 Ry
     Harris-Foulkes estimate   =    -147.41109409 Ry
     estimated scf accuracy    <       0.00000652 Ry

     iteration #  6     ecut=    35.00 Ry     beta=0.30
     Davidson diagonalization with overlap
     ethr =  2.04E-08,  avg # of iterations =  2.0

     total cpu time spent up to now is        2.1 secs

     total energy              =    -147.41105153 Ry
     Harris-Foulkes estimate   =    -147.41105022 Ry
     estimated scf accuracy    <       0.00000632 Ry

     iteration #  7     ecut=    35.00 Ry     beta=0.30
     Davidson diagonalization with overlap
     ethr =  1.97E-08,  avg # of iterations =  2.0

     total cpu time spent up to now is        2.3 secs

     End of self-consistent calculation

          k = 0.1289 0.1289 0.1289 (   964 PWs)   bands (ev):

    -7.2466  -0.2328  -0.2328  -0.2328   3.8313   3.8313   3.8313   6.9903
     6.9903   6.9903   8.5520   8.5520   8.5520  12.4038  14.2681  14.2681
    20.1809  20.1809  20.1809  21.7756

          k = 0.1289 0.1289 0.3866 (   984 PWs)   bands (ev):

    -6.0334  -3.6516   0.6188   0.6188   3.2179   3.2179   5.8926   5.8927
     7.0710   8.0612   8.0612   9.3927   9.5695   9.7028  11.8432  12.8565
    20.4365  21.1406  22.8737  22.8738

          k = 0.1289 0.3866 0.3866 (   977 PWs)   bands (ev):

    -4.8383  -2.5177  -2.5177  -0.4774   2.6240   4.5270   4.5271   6.6881
     6.7230   8.2646   8.2646  10.2906  10.4169  10.5597  10.5598  12.9951
    22.1520  23.3631  23.3631  23.5540

          k = 0.3866 0.3866 0.3866 (   991 PWs)   bands (ev):

    -3.6727  -1.5408  -1.5408  -1.5408   1.5461   1.5461   1.5461   3.6084
    10.5487  10.5487  10.5487  11.1601  11.1601  11.1601  12.2445  12.2445
    22.9696  22.9696  22.9697  23.7810

     the Fermi energy is    16.2962 ev

!    total energy              =    -147.41105353 Ry
     Harris-Foulkes estimate   =    -147.41105234 Ry
     estimated scf accuracy    <       0.00000007 Ry

     total all-electron energy =      -609.523835 Ry

     The total energy is the sum of the following terms:

     one-electron contribution =      37.90686280 Ry
     hartree contribution      =       7.40520689 Ry
     xc contribution           =     -38.10586143 Ry
     ewald contribution        =    -105.29604042 Ry
     one-center paw contrib.   =     -49.32122138 Ry
     smearing contrib. (-TS)   =       0.00000000 Ry

     convergence has been achieved in   7 iterations

     Forces acting on atoms (Ry/au):

     atom    1 type  1   force =     0.00000000    0.00000000    0.00000000
     atom    2 type  1   force =     0.00000000    0.00000000    0.00000000
     atom    3 type  1   force =     0.00000000    0.00000000    0.00000000
     atom    4 type  1   force =     0.00000000    0.00000000    0.00000000
     atom    5 type  1   force =    -0.00000002   -0.00000002   -0.00000002
     atom    6 type  1   force =     0.00000002    0.00000002   -0.00000002
     atom    7 type  1   force =    -0.00000002    0.00000002    0.00000002
     atom    8 type  1   force =     0.00000002   -0.00000002    0.00000002

     Total force =     0.000000     Total SCF correction =     0.000011
     SCF correction compared to forces is large: reduce conv_thr to get better values


     entering subroutine stress ...

          total   stress  (Ry/bohr**3)                   (kbar)     P=  411.20
   0.00279530   0.00000000   0.00000000        411.20      0.00      0.00
   0.00000000   0.00279530   0.00000000          0.00    411.20      0.00
   0.00000000   0.00000000   0.00279530          0.00      0.00    411.20


     Writing output data file template.save

     init_run     :      0.30s CPU      0.32s WALL (       1 calls)
     electrons    :      1.67s CPU      1.70s WALL (       1 calls)
     forces       :      0.07s CPU      0.07s WALL (       1 calls)
     stress       :      0.10s CPU      0.10s WALL (       1 calls)

     Called by init_run:
     wfcinit      :      0.05s CPU      0.05s WALL (       1 calls)
     potinit      :      0.14s CPU      0.15s WALL (       1 calls)

     Called by electrons:
     c_bands      :      0.63s CPU      0.64s WALL (       7 calls)
     sum_band     :      0.12s CPU      0.13s WALL (       7 calls)
     v_of_rho     :      0.06s CPU      0.06s WALL (       8 calls)
     newd         :      0.04s CPU      0.04s WALL (       8 calls)
     PAW_pot      :      0.94s CPU      0.96s WALL (       8 calls)
     mix_rho      :      0.00s CPU      0.01s WALL (       7 calls)

     Called by c_bands:
     init_us_2    :      0.01s CPU      0.01s WALL (      68 calls)
     cegterg      :      0.63s CPU      0.63s WALL (      28 calls)

     Called by sum_band:
     sum_band:bec :      0.00s CPU      0.00s WALL (      28 calls)
     addusdens    :      0.02s CPU      0.03s WALL (       7 calls)

     Called by *egterg:
     h_psi        :      0.44s CPU      0.46s WALL (     110 calls)
     s_psi        :      0.03s CPU      0.02s WALL (     110 calls)
     g_psi        :      0.00s CPU      0.00s WALL (      78 calls)
     cdiaghg      :      0.12s CPU      0.10s WALL (     106 calls)

     Called by h_psi:
     h_psi:pot    :      0.43s CPU      0.46s WALL (     110 calls)
     h_psi:calbec :      0.02s CPU      0.03s WALL (     110 calls)
     vloc_psi     :      0.38s CPU      0.40s WALL (     110 calls)
     add_vuspsi   :      0.03s CPU      0.02s WALL (     110 calls)

     General routines
     calbec       :      0.04s CPU      0.05s WALL (     158 calls)
     fft          :      0.08s CPU      0.07s WALL (     149 calls)
     ffts         :      0.00s CPU      0.00s WALL (      15 calls)
     fftw         :      0.43s CPU      0.44s WALL (    3808 calls)
     interpolate  :      0.00s CPU      0.01s WALL (      15 calls)
     davcio       :      0.00s CPU      0.00s WALL (       4 calls)

     Parallel routines
     fft_scatter  :      0.12s CPU      0.14s WALL (    3972 calls)

     PWSCF        :     2.43s CPU         2.57s WALL


   This run was terminated on:  12:48:19   9Jun2017            

=------------------------------------------------------------------------------=
   JOB DONE.
=------------------------------------------------------------------------------=
