
     Program PWSCF v.6.0 (svn rev. 13079) starts on  9Jun2017 at 12:48:39 

     This program is part of the open-source Quantum ESPRESSO suite
     for quantum simulation of materials; please cite
         "P. Giannozzi et al., J. Phys.:Condens. Matter 21 395502 (2009);
          URL http://www.quantum-espresso.org", 
     in publications or presentations arising from this work. More details at
     http://www.quantum-espresso.org/quote

     Parallel version (MPI), running on     4 processors
     R & G space division:  proc/nbgrp/npool/nimage =       4
     Waiting for input...
     Reading input from standard input
Warning: card &IONS ignored
Warning: card ION_DYNAMICS='BFGS', ignored
Warning: card / ignored
Warning: card &CELL ignored
Warning: card CELL_DYNAMICS='BFGS', ignored
Warning: card PRESS = 0.0, ignored
Warning: card CELL_FACTOR = 2.0, ignored
Warning: card / ignored

     Current dimensions of program PWSCF are:
     Max number of different atomic species (ntypx) = 10
     Max number of k-points (npk) =  40000
     Max angular momentum in pseudopotentials (lmaxx) =  3
               file C.pbe-n-kjpaw_psl.1.0.0.UPF: wavefunction(s)  2S 2P renormalized

     Subspace diagonalization in iterative solution of the eigenvalue problem:
     a serial algorithm will be used

     Found symmetry operation: I + ( -0.5000 -0.5000  0.0000)
     This is a supercell, fractional translations are disabled

     Parallelization info
     --------------------
     sticks:   dense  smooth     PW     G-vecs:    dense   smooth      PW
     Min         179     126     36                 3601     2102     340
     Max         180     127     37                 3604     2103     343
     Sum         717     505    145                14411     8409    1365



     bravais-lattice index     =            0
     lattice parameter (alat)  =       6.7508  a.u.
     unit-cell volume          =     303.0679 (a.u.)^3
     number of atoms/cell      =            8
     number of atomic types    =            1
     number of electrons       =        32.00
     number of Kohn-Sham states=           20
     kinetic-energy cutoff     =      35.0000  Ry
     charge density cutoff     =     200.0000  Ry
     convergence threshold     =      1.0E-06
     mixing beta               =       0.3000
     number of iterations used =           10  TF        mixing
     Exchange-correlation      =  SLA  PW   PBX  PBC ( 1  4  3  4 0 0)

     celldm(1)=   6.750826  celldm(2)=   0.000000  celldm(3)=   0.000000
     celldm(4)=   0.000000  celldm(5)=   0.000000  celldm(6)=   0.000000

     crystal axes: (cart. coord. in units of alat)
               a(1) = (   0.995000   0.000000   0.000000 )  
               a(2) = (   0.000000   0.995000   0.000000 )  
               a(3) = (   0.000000   0.000000   0.995000 )  

     reciprocal axes: (cart. coord. in units 2 pi/alat)
               b(1) = (  1.005025  0.000000  0.000000 )  
               b(2) = (  0.000000  1.005025  0.000000 )  
               b(3) = (  0.000000  0.000000  1.005025 )  


     PseudoPot. # 1 for  C read from file:
     /home/ben/espresso/pp/C.pbe-n-kjpaw_psl.1.0.0.UPF
     MD5 check sum: 151efd6a948e5eaef53e53bb29d01b27
     Pseudo is Projector augmented-wave + core cor, Zval =  4.0
     Generated using "atomic" code by A. Dal Corso  v.5.1
     Shape of augmentation charge: PSQ
     Using radial grid of 1073 points,  4 beta functions with: 
                l(1) =   0
                l(2) =   0
                l(3) =   1
                l(4) =   1
     Q(r) pseudized with 0 coefficients 


     atomic species   valence    mass     pseudopotential
        C              4.00    12.00000      C( 1.00)

     24 Sym. Ops. (no inversion) found



   Cartesian axes

     site n.     atom                  positions (alat units)
         1           C   tau(   1) = (   0.0000000   0.0000000   0.0000000  )
         2           C   tau(   2) = (   0.4975000   0.4975000   0.0000000  )
         3           C   tau(   3) = (   0.4975000   0.0000000   0.4975000  )
         4           C   tau(   4) = (   0.0000000   0.4975000   0.4975000  )
         5           C   tau(   5) = (   0.2487500   0.2487500   0.2487500  )
         6           C   tau(   6) = (   0.7462500   0.7462500   0.2487500  )
         7           C   tau(   7) = (   0.2487500   0.7462500   0.7462500  )
         8           C   tau(   8) = (   0.7462500   0.2487500   0.7462500  )

     number of k points=     4  Marzari-Vanderbilt smearing, width (Ry)=  0.0200
                       cart. coord. in units 2pi/alat
        k(    1) = (   0.1256281   0.1256281   0.1256281), wk =   0.2500000
        k(    2) = (   0.1256281   0.1256281   0.3768844), wk =   0.7500000
        k(    3) = (   0.1256281   0.3768844   0.3768844), wk =   0.7500000
        k(    4) = (   0.3768844   0.3768844   0.3768844), wk =   0.2500000

     Dense  grid:    14411 G-vectors     FFT dimensions: (  32,  32,  32)

     Smooth grid:     8409 G-vectors     FFT dimensions: (  25,  25,  25)

     Estimated max dynamical RAM per process >       3.74Mb

     Estimated total allocated dynamical RAM >      14.96Mb

     Check: negative/imaginary core charge=   -0.000072    0.000000

     Initial potential from superposition of free atoms

     starting charge   31.99967, renormalised to   32.00000
     Starting wfc are   32 randomized atomic wfcs
     Checking if some PAW data can be deallocated... 

     total cpu time spent up to now is        0.6 secs

     per-process dynamical memory:    16.4 Mb

     Self-consistent Calculation

     iteration #  1     ecut=    35.00 Ry     beta=0.30
     Davidson diagonalization with overlap
     ethr =  1.00E-02,  avg # of iterations =  2.2

     total cpu time spent up to now is        0.8 secs

     total energy              =    -147.55353475 Ry
     Harris-Foulkes estimate   =    -147.63853503 Ry
     estimated scf accuracy    <       0.48164866 Ry

     iteration #  2     ecut=    35.00 Ry     beta=0.30
     Davidson diagonalization with overlap
     ethr =  1.51E-03,  avg # of iterations =  1.0

     total cpu time spent up to now is        1.1 secs

     total energy              =    -147.42273811 Ry
     Harris-Foulkes estimate   =    -147.55661681 Ry
     estimated scf accuracy    <       0.28377201 Ry

     iteration #  3     ecut=    35.00 Ry     beta=0.30
     Davidson diagonalization with overlap
     ethr =  8.87E-04,  avg # of iterations =  2.5

     total cpu time spent up to now is        1.3 secs

     total energy              =    -147.45093159 Ry
     Harris-Foulkes estimate   =    -147.44777676 Ry
     estimated scf accuracy    <       0.00297957 Ry

     iteration #  4     ecut=    35.00 Ry     beta=0.30
     Davidson diagonalization with overlap
     ethr =  9.31E-06,  avg # of iterations =  7.8

     total cpu time spent up to now is        1.7 secs

     total energy              =    -147.45202665 Ry
     Harris-Foulkes estimate   =    -147.45179293 Ry
     estimated scf accuracy    <       0.00017782 Ry

     iteration #  5     ecut=    35.00 Ry     beta=0.30
     Davidson diagonalization with overlap
     ethr =  5.56E-07,  avg # of iterations =  2.0

     total cpu time spent up to now is        1.9 secs

     total energy              =    -147.45202109 Ry
     Harris-Foulkes estimate   =    -147.45206377 Ry
     estimated scf accuracy    <       0.00000760 Ry

     iteration #  6     ecut=    35.00 Ry     beta=0.30
     Davidson diagonalization with overlap
     ethr =  2.37E-08,  avg # of iterations =  2.2

     total cpu time spent up to now is        2.1 secs

     total energy              =    -147.45202718 Ry
     Harris-Foulkes estimate   =    -147.45202485 Ry
     estimated scf accuracy    <       0.00000630 Ry

     iteration #  7     ecut=    35.00 Ry     beta=0.30
     Davidson diagonalization with overlap
     ethr =  1.97E-08,  avg # of iterations =  2.0

     total cpu time spent up to now is        2.4 secs

     End of self-consistent calculation

          k = 0.1256 0.1256 0.1256 (  1060 PWs)   bands (ev):

    -7.6436  -1.0096  -1.0096  -1.0096   2.8142   2.8142   2.8142   6.1247
     6.1247   6.1247   7.5634   7.5634   7.5634  11.1175  12.8921  12.8921
    18.5601  18.5601  18.5601  20.0518

          k = 0.1256 0.1256 0.3769 (  1065 PWs)   bands (ev):

    -6.4927  -4.2366  -0.2569  -0.2569   2.3039   2.3039   5.0514   5.0514
     5.9814   7.1299   7.1299   8.2792   8.4186   8.6451  10.6433  11.5053
    18.7668  19.4366  21.1359  21.1359

          k = 0.1256 0.3769 0.3769 (  1058 PWs)   bands (ev):

    -5.3621  -3.1753  -3.1753  -1.3004   1.8634   3.6252   3.6252   5.7219
     5.7342   7.2139   7.2139   9.1432   9.3033   9.4247   9.4247  11.6947
    20.4486  21.5804  21.5804  21.7384

          k = 0.3769 0.3769 0.3769 (  1046 PWs)   bands (ev):

    -4.2685  -2.3077  -2.3076  -2.3076   0.8842   0.8842   0.8842   2.7862
     9.3674   9.3675   9.3675   9.9880   9.9880   9.9880  10.9935  10.9935
    21.2254  21.2254  21.2254  21.9975

     the Fermi energy is    14.8593 ev

!    total energy              =    -147.45202868 Ry
     Harris-Foulkes estimate   =    -147.45202801 Ry
     estimated scf accuracy    <       0.00000005 Ry

     total all-electron energy =      -609.564810 Ry

     The total energy is the sum of the following terms:

     one-electron contribution =      34.36480700 Ry
     hartree contribution      =       7.71288156 Ry
     xc contribution           =     -37.57331757 Ry
     ewald contribution        =    -102.65041113 Ry
     one-center paw contrib.   =     -49.30598855 Ry
     smearing contrib. (-TS)   =       0.00000000 Ry

     convergence has been achieved in   7 iterations

     Forces acting on atoms (Ry/au):

     atom    1 type  1   force =     0.00000000    0.00000000    0.00000000
     atom    2 type  1   force =     0.00000000    0.00000000    0.00000000
     atom    3 type  1   force =     0.00000000    0.00000000    0.00000000
     atom    4 type  1   force =     0.00000000    0.00000000    0.00000000
     atom    5 type  1   force =    -0.00000088   -0.00000088   -0.00000088
     atom    6 type  1   force =     0.00000088    0.00000088   -0.00000088
     atom    7 type  1   force =    -0.00000088    0.00000088    0.00000088
     atom    8 type  1   force =     0.00000088   -0.00000088    0.00000088

     Total force =     0.000003     Total SCF correction =     0.000028
     SCF correction compared to forces is large: reduce conv_thr to get better values


     entering subroutine stress ...

          total   stress  (Ry/bohr**3)                   (kbar)     P=   18.29
   0.00012432   0.00000000   0.00000000         18.29      0.00      0.00
   0.00000000   0.00012432   0.00000000          0.00     18.29      0.00
   0.00000000   0.00000000   0.00012432          0.00      0.00     18.29


     Writing output data file template.save

     init_run     :      0.28s CPU      0.30s WALL (       1 calls)
     electrons    :      1.74s CPU      1.76s WALL (       1 calls)
     forces       :      0.09s CPU      0.09s WALL (       1 calls)
     stress       :      0.11s CPU      0.11s WALL (       1 calls)

     Called by init_run:
     wfcinit      :      0.04s CPU      0.04s WALL (       1 calls)
     potinit      :      0.13s CPU      0.14s WALL (       1 calls)

     Called by electrons:
     c_bands      :      0.67s CPU      0.68s WALL (       7 calls)
     sum_band     :      0.13s CPU      0.13s WALL (       7 calls)
     v_of_rho     :      0.06s CPU      0.07s WALL (       8 calls)
     newd         :      0.04s CPU      0.04s WALL (       8 calls)
     PAW_pot      :      0.95s CPU      0.96s WALL (       8 calls)
     mix_rho      :      0.01s CPU      0.01s WALL (       7 calls)

     Called by c_bands:
     init_us_2    :      0.01s CPU      0.01s WALL (      68 calls)
     cegterg      :      0.66s CPU      0.66s WALL (      28 calls)

     Called by sum_band:
     sum_band:bec :      0.00s CPU      0.00s WALL (      28 calls)
     addusdens    :      0.03s CPU      0.03s WALL (       7 calls)

     Called by *egterg:
     h_psi        :      0.46s CPU      0.46s WALL (     111 calls)
     s_psi        :      0.02s CPU      0.02s WALL (     111 calls)
     g_psi        :      0.01s CPU      0.00s WALL (      79 calls)
     cdiaghg      :      0.09s CPU      0.11s WALL (     107 calls)

     Called by h_psi:
     h_psi:pot    :      0.46s CPU      0.46s WALL (     111 calls)
     h_psi:calbec :      0.04s CPU      0.04s WALL (     111 calls)
     vloc_psi     :      0.40s CPU      0.40s WALL (     111 calls)
     add_vuspsi   :      0.02s CPU      0.02s WALL (     111 calls)

     General routines
     calbec       :      0.06s CPU      0.06s WALL (     159 calls)
     fft          :      0.02s CPU      0.05s WALL (     149 calls)
     ffts         :      0.00s CPU      0.00s WALL (      15 calls)
     fftw         :      0.43s CPU      0.43s WALL (    3816 calls)
     interpolate  :      0.00s CPU      0.01s WALL (      15 calls)
     davcio       :      0.00s CPU      0.00s WALL (       4 calls)

     Parallel routines
     fft_scatter  :      0.11s CPU      0.14s WALL (    3980 calls)

     PWSCF        :     2.50s CPU         2.62s WALL


   This run was terminated on:  12:48:41   9Jun2017            

=------------------------------------------------------------------------------=
   JOB DONE.
=------------------------------------------------------------------------------=
