
     Program PWSCF v.6.0 (svn rev. 13079) starts on  9Jun2017 at 12:49:45 

     This program is part of the open-source Quantum ESPRESSO suite
     for quantum simulation of materials; please cite
         "P. Giannozzi et al., J. Phys.:Condens. Matter 21 395502 (2009);
          URL http://www.quantum-espresso.org", 
     in publications or presentations arising from this work. More details at
     http://www.quantum-espresso.org/quote

     Parallel version (MPI), running on     4 processors
     R & G space division:  proc/nbgrp/npool/nimage =       4
     Waiting for input...
     Reading input from standard input
Warning: card &IONS ignored
Warning: card ION_DYNAMICS='BFGS', ignored
Warning: card / ignored
Warning: card &CELL ignored
Warning: card CELL_DYNAMICS='BFGS', ignored
Warning: card PRESS = 0.0, ignored
Warning: card CELL_FACTOR = 2.0, ignored
Warning: card / ignored

     Current dimensions of program PWSCF are:
     Max number of different atomic species (ntypx) = 10
     Max number of k-points (npk) =  40000
     Max angular momentum in pseudopotentials (lmaxx) =  3
               file C.pbe-n-kjpaw_psl.1.0.0.UPF: wavefunction(s)  2S 2P renormalized

     Subspace diagonalization in iterative solution of the eigenvalue problem:
     a serial algorithm will be used

     Found symmetry operation: I + ( -0.5000 -0.5000  0.0000)
     This is a supercell, fractional translations are disabled

     Parallelization info
     --------------------
     sticks:   dense  smooth     PW     G-vecs:    dense   smooth      PW
     Min         182     125     36                 3681     2139     350
     Max         183     126     38                 3682     2140     351
     Sum         729     501    147                14727     8557    1401



     bravais-lattice index     =            0
     lattice parameter (alat)  =       6.7508  a.u.
     unit-cell volume          =     307.6597 (a.u.)^3
     number of atoms/cell      =            8
     number of atomic types    =            1
     number of electrons       =        32.00
     number of Kohn-Sham states=           20
     kinetic-energy cutoff     =      35.0000  Ry
     charge density cutoff     =     200.0000  Ry
     convergence threshold     =      1.0E-06
     mixing beta               =       0.3000
     number of iterations used =           10  TF        mixing
     Exchange-correlation      =  SLA  PW   PBX  PBC ( 1  4  3  4 0 0)

     celldm(1)=   6.750826  celldm(2)=   0.000000  celldm(3)=   0.000000
     celldm(4)=   0.000000  celldm(5)=   0.000000  celldm(6)=   0.000000

     crystal axes: (cart. coord. in units of alat)
               a(1) = (   1.008000   0.000000   0.000000 )  
               a(2) = (   0.000000   0.992000   0.000000 )  
               a(3) = (   0.000000   0.000000   1.000064 )  

     reciprocal axes: (cart. coord. in units 2 pi/alat)
               b(1) = (  0.992063  0.000000  0.000000 )  
               b(2) = (  0.000000  1.008065  0.000000 )  
               b(3) = (  0.000000  0.000000  0.999936 )  


     PseudoPot. # 1 for  C read from file:
     /home/ben/espresso/pp/C.pbe-n-kjpaw_psl.1.0.0.UPF
     MD5 check sum: 151efd6a948e5eaef53e53bb29d01b27
     Pseudo is Projector augmented-wave + core cor, Zval =  4.0
     Generated using "atomic" code by A. Dal Corso  v.5.1
     Shape of augmentation charge: PSQ
     Using radial grid of 1073 points,  4 beta functions with: 
                l(1) =   0
                l(2) =   0
                l(3) =   1
                l(4) =   1
     Q(r) pseudized with 0 coefficients 


     atomic species   valence    mass     pseudopotential
        C              4.00    12.00000      C( 1.00)

      4 Sym. Ops. (no inversion) found



   Cartesian axes

     site n.     atom                  positions (alat units)
         1           C   tau(   1) = (   0.0000000   0.0000000   0.0000000  )
         2           C   tau(   2) = (   0.5040000   0.4960000   0.0000000  )
         3           C   tau(   3) = (   0.5040000   0.0000000   0.5000320  )
         4           C   tau(   4) = (   0.0000000   0.4960000   0.5000320  )
         5           C   tau(   5) = (   0.2520000   0.2480000   0.2500160  )
         6           C   tau(   6) = (   0.7560000   0.7440000   0.2500160  )
         7           C   tau(   7) = (   0.2520000   0.7440000   0.7500480  )
         8           C   tau(   8) = (   0.7560000   0.2480000   0.7500480  )

     number of k points=     8  Marzari-Vanderbilt smearing, width (Ry)=  0.0200
                       cart. coord. in units 2pi/alat
        k(    1) = (   0.1240079   0.1260081   0.1249920), wk =   0.2500000
        k(    2) = (   0.1240079   0.1260081   0.3749760), wk =   0.2500000
        k(    3) = (   0.1240079   0.3780242   0.1249920), wk =   0.2500000
        k(    4) = (   0.1240079   0.3780242   0.3749760), wk =   0.2500000
        k(    5) = (   0.3720238   0.1260081   0.1249920), wk =   0.2500000
        k(    6) = (   0.3720238   0.1260081   0.3749760), wk =   0.2500000
        k(    7) = (   0.3720238   0.3780242   0.1249920), wk =   0.2500000
        k(    8) = (   0.3720238   0.3780242   0.3749760), wk =   0.2500000

     Dense  grid:    14727 G-vectors     FFT dimensions: (  32,  32,  32)

     Smooth grid:     8557 G-vectors     FFT dimensions: (  25,  25,  25)

     Estimated max dynamical RAM per process >       4.12Mb

     Estimated total allocated dynamical RAM >      16.49Mb

     Check: negative/imaginary core charge=   -0.000075    0.000000

     Initial potential from superposition of free atoms

     starting charge   31.99967, renormalised to   32.00000
     Starting wfc are   32 randomized atomic wfcs
     Checking if some PAW data can be deallocated... 

     total cpu time spent up to now is        0.7 secs

     per-process dynamical memory:    16.8 Mb

     Self-consistent Calculation

     iteration #  1     ecut=    35.00 Ry     beta=0.30
     Davidson diagonalization with overlap
     ethr =  1.00E-02,  avg # of iterations =  2.6

     total cpu time spent up to now is        1.1 secs

     total energy              =    -147.54922596 Ry
     Harris-Foulkes estimate   =    -147.63036210 Ry
     estimated scf accuracy    <       0.46517430 Ry

     iteration #  2     ecut=    35.00 Ry     beta=0.30
     Davidson diagonalization with overlap
     ethr =  1.45E-03,  avg # of iterations =  1.0

     total cpu time spent up to now is        1.4 secs

     total energy              =    -147.42416465 Ry
     Harris-Foulkes estimate   =    -147.55222637 Ry
     estimated scf accuracy    <       0.27425308 Ry

     iteration #  3     ecut=    35.00 Ry     beta=0.30
     Davidson diagonalization with overlap
     ethr =  8.57E-04,  avg # of iterations =  2.2

     total cpu time spent up to now is        1.7 secs

     total energy              =    -147.45119736 Ry
     Harris-Foulkes estimate   =    -147.44808207 Ry
     estimated scf accuracy    <       0.00293077 Ry

     iteration #  4     ecut=    35.00 Ry     beta=0.30
     Davidson diagonalization with overlap
     ethr =  9.16E-06,  avg # of iterations =  7.9

     total cpu time spent up to now is        2.2 secs

     total energy              =    -147.45233782 Ry
     Harris-Foulkes estimate   =    -147.45208579 Ry
     estimated scf accuracy    <       0.00022060 Ry

     iteration #  5     ecut=    35.00 Ry     beta=0.30
     Davidson diagonalization with overlap
     ethr =  6.89E-07,  avg # of iterations =  2.1

     total cpu time spent up to now is        2.6 secs

     total energy              =    -147.45233826 Ry
     Harris-Foulkes estimate   =    -147.45238266 Ry
     estimated scf accuracy    <       0.00000851 Ry

     iteration #  6     ecut=    35.00 Ry     beta=0.30
     Davidson diagonalization with overlap
     ethr =  2.66E-08,  avg # of iterations =  2.2

     total cpu time spent up to now is        2.9 secs

     total energy              =    -147.45234569 Ry
     Harris-Foulkes estimate   =    -147.45234186 Ry
     estimated scf accuracy    <       0.00000557 Ry

     iteration #  7     ecut=    35.00 Ry     beta=0.30
     Davidson diagonalization with overlap
     ethr =  1.74E-08,  avg # of iterations =  2.0

     total cpu time spent up to now is        3.3 secs

     End of self-consistent calculation

          k = 0.1240 0.1260 0.1250 (  1079 PWs)   bands (ev):

    -7.7178  -1.2518  -1.1577  -1.0607   2.5031   2.6204   2.7374   5.8892
     5.9626   6.0384   7.2587   7.3781   7.4939  10.8675  12.5563  12.7099
    18.0622  18.2545  18.4408  19.6605

          k = 0.1240 0.1260 0.3750 (  1076 PWs)   bands (ev):

    -6.5791  -4.3477  -0.4881  -0.3596   2.1228   2.1315   4.8617   4.9281
     5.7746   6.8724   7.0471   8.0663   8.2010   8.4508  10.4113  11.2561
    18.4527  19.1140  20.6443  20.9599

          k = 0.1240 0.3780 0.1250 (  1081 PWs)   bands (ev):

    -6.5605  -4.2942  -0.4840  -0.4204   2.1025   2.1052   4.8495   4.8807
     5.7766   6.9245   7.0113   8.1359   8.1763   8.3427  10.3333  11.3472
    18.2708  18.9688  20.8803  21.0350

          k = 0.1240 0.3780 0.3750 (  1075 PWs)   bands (ev):

    -5.4431  -3.2848  -3.2508  -1.4299   1.6591   3.3921   3.4125   5.4415
     5.4941   6.9282   6.9311   8.8366   9.2107   9.2768   9.3242  11.5542
    20.3059  21.1042  21.2873  21.3630

          k = 0.3720 0.1260 0.1250 (  1077 PWs)   bands (ev):

    -6.5970  -4.3993  -0.4263  -0.3613   2.1504   2.1565   4.9068   4.9428
     5.7592   6.8988   6.9869   8.0141   8.2214   8.5473  10.4953  11.1559
    18.6265  19.2529  20.5710  20.7314

          k = 0.3720 0.1260 0.3750 (  1075 PWs)   bands (ev):

    -5.4784  -3.3488  -3.3158  -1.4840   1.7808   3.4974   3.5153   5.5706
     5.6714   7.0979   7.1037   8.9685   9.0142   9.1092   9.1442  11.3429
    19.9348  21.1922  21.3623  21.4060

          k = 0.3720 0.3780 0.1250 (  1073 PWs)   bands (ev):

    -5.4605  -3.3327  -3.2658  -1.4555   1.7183   3.4338   3.4727   5.5307
     5.5543   7.0126   7.0148   8.9221   9.0914   9.1732   9.2560  11.4479
    20.1242  21.0573  21.3605  21.4122

          k = 0.3720 0.3780 0.3750 (  1066 PWs)   bands (ev):

    -4.3811  -2.4771  -2.4532  -2.4286   0.7382   0.7600   0.7814   2.6318
     9.0110   9.1250   9.2623   9.6643   9.7808   9.8784  10.6408  10.8735
    20.7500  20.8852  21.0125  21.5122

     the Fermi energy is    14.4768 ev

!    total energy              =    -147.45234726 Ry
     Harris-Foulkes estimate   =    -147.45234643 Ry
     estimated scf accuracy    <       0.00000006 Ry

     total all-electron energy =      -609.565129 Ry

     The total energy is the sum of the following terms:

     one-electron contribution =      33.68910436 Ry
     hartree contribution      =       7.77269840 Ry
     xc contribution           =     -37.47059294 Ry
     ewald contribution        =    -102.14015626 Ry
     one-center paw contrib.   =     -49.30340081 Ry
     smearing contrib. (-TS)   =       0.00000000 Ry

     convergence has been achieved in   7 iterations

     Forces acting on atoms (Ry/au):

     atom    1 type  1   force =     0.00000000    0.00000000    0.00000000
     atom    2 type  1   force =     0.00000000    0.00000000    0.00000000
     atom    3 type  1   force =     0.00000000    0.00000000    0.00000000
     atom    4 type  1   force =     0.00000000    0.00000000    0.00000000
     atom    5 type  1   force =     0.00000345   -0.00000351   -0.00000402
     atom    6 type  1   force =    -0.00000345    0.00000351   -0.00000402
     atom    7 type  1   force =     0.00000345    0.00000351    0.00000402
     atom    8 type  1   force =    -0.00000345   -0.00000351    0.00000402

     Total force =     0.000013     Total SCF correction =     0.000104
     SCF correction compared to forces is large: reduce conv_thr to get better values


     entering subroutine stress ...

          total   stress  (Ry/bohr**3)                   (kbar)     P=  -47.07
  -0.00082004   0.00000000   0.00000000       -120.63      0.00      0.00
   0.00000000   0.00017926   0.00000000          0.00     26.37      0.00
   0.00000000   0.00000000  -0.00031916          0.00      0.00    -46.95


     Writing output data file template.save

     init_run     :      0.43s CPU      0.45s WALL (       1 calls)
     electrons    :      2.49s CPU      2.54s WALL (       1 calls)
     forces       :      0.22s CPU      0.23s WALL (       1 calls)
     stress       :      0.36s CPU      0.36s WALL (       1 calls)

     Called by init_run:
     wfcinit      :      0.10s CPU      0.10s WALL (       1 calls)
     potinit      :      0.15s CPU      0.17s WALL (       1 calls)

     Called by electrons:
     c_bands      :      1.36s CPU      1.39s WALL (       7 calls)
     sum_band     :      0.22s CPU      0.23s WALL (       7 calls)
     v_of_rho     :      0.06s CPU      0.06s WALL (       8 calls)
     newd         :      0.04s CPU      0.05s WALL (       8 calls)
     PAW_pot      :      0.92s CPU      0.94s WALL (       8 calls)
     mix_rho      :      0.01s CPU      0.01s WALL (       7 calls)

     Called by c_bands:
     init_us_2    :      0.03s CPU      0.02s WALL (     136 calls)
     cegterg      :      1.30s CPU      1.35s WALL (      56 calls)

     Called by sum_band:
     sum_band:bec :      0.00s CPU      0.00s WALL (      56 calls)
     addusdens    :      0.04s CPU      0.04s WALL (       7 calls)

     Called by *egterg:
     h_psi        :      0.87s CPU      0.94s WALL (     225 calls)
     s_psi        :      0.04s CPU      0.05s WALL (     225 calls)
     g_psi        :      0.01s CPU      0.00s WALL (     161 calls)
     cdiaghg      :      0.26s CPU      0.24s WALL (     217 calls)

     Called by h_psi:
     h_psi:pot    :      0.87s CPU      0.93s WALL (     225 calls)
     h_psi:calbec :      0.09s CPU      0.07s WALL (     225 calls)
     vloc_psi     :      0.74s CPU      0.81s WALL (     225 calls)
     add_vuspsi   :      0.04s CPU      0.05s WALL (     225 calls)

     General routines
     calbec       :      0.14s CPU      0.12s WALL (     321 calls)
     fft          :      0.04s CPU      0.05s WALL (     149 calls)
     ffts         :      0.00s CPU      0.00s WALL (      15 calls)
     fftw         :      0.84s CPU      0.88s WALL (    7648 calls)
     interpolate  :      0.00s CPU      0.01s WALL (      15 calls)
     davcio       :      0.00s CPU      0.00s WALL (       8 calls)

     Parallel routines
     fft_scatter  :      0.26s CPU      0.26s WALL (    7812 calls)

     PWSCF        :     3.76s CPU         3.91s WALL


   This run was terminated on:  12:49:49   9Jun2017            

=------------------------------------------------------------------------------=
   JOB DONE.
=------------------------------------------------------------------------------=
