
     Program PWSCF v.6.0 (svn rev. 13079) starts on  9Jun2017 at 12:50:15 

     This program is part of the open-source Quantum ESPRESSO suite
     for quantum simulation of materials; please cite
         "P. Giannozzi et al., J. Phys.:Condens. Matter 21 395502 (2009);
          URL http://www.quantum-espresso.org", 
     in publications or presentations arising from this work. More details at
     http://www.quantum-espresso.org/quote

     Parallel version (MPI), running on     4 processors
     R & G space division:  proc/nbgrp/npool/nimage =       4
     Waiting for input...
     Reading input from standard input
Warning: card &IONS ignored
Warning: card ION_DYNAMICS='BFGS', ignored
Warning: card / ignored
Warning: card &CELL ignored
Warning: card CELL_DYNAMICS='BFGS', ignored
Warning: card PRESS = 0.0, ignored
Warning: card CELL_FACTOR = 2.0, ignored
Warning: card / ignored

     Current dimensions of program PWSCF are:
     Max number of different atomic species (ntypx) = 10
     Max number of k-points (npk) =  40000
     Max angular momentum in pseudopotentials (lmaxx) =  3
               file C.pbe-n-kjpaw_psl.1.0.0.UPF: wavefunction(s)  2S 2P renormalized

     Subspace diagonalization in iterative solution of the eigenvalue problem:
     a serial algorithm will be used

     Found symmetry operation: I + ( -0.5000 -0.5000  0.0000)
     This is a supercell, fractional translations are disabled

     Parallelization info
     --------------------
     sticks:   dense  smooth     PW     G-vecs:    dense   smooth      PW
     Min         181     125     37                 3683     2139     350
     Max         182     126     38                 3686     2142     351
     Sum         727     501    151                14737     8561    1401



     bravais-lattice index     =            0
     lattice parameter (alat)  =       6.7508  a.u.
     unit-cell volume          =     307.6597 (a.u.)^3
     number of atoms/cell      =            8
     number of atomic types    =            1
     number of electrons       =        32.00
     number of Kohn-Sham states=           20
     kinetic-energy cutoff     =      35.0000  Ry
     charge density cutoff     =     200.0000  Ry
     convergence threshold     =      1.0E-06
     mixing beta               =       0.3000
     number of iterations used =           10  TF        mixing
     Exchange-correlation      =  SLA  PW   PBX  PBC ( 1  4  3  4 0 0)

     celldm(1)=   6.750826  celldm(2)=   0.000000  celldm(3)=   0.000000
     celldm(4)=   0.000000  celldm(5)=   0.000000  celldm(6)=   0.000000

     crystal axes: (cart. coord. in units of alat)
               a(1) = (   1.018000   0.000000   0.000000 )  
               a(2) = (   0.000000   0.982000   0.000000 )  
               a(3) = (   0.000000   0.000000   1.000324 )  

     reciprocal axes: (cart. coord. in units 2 pi/alat)
               b(1) = (  0.982318  0.000000  0.000000 )  
               b(2) = (  0.000000  1.018330  0.000000 )  
               b(3) = (  0.000000  0.000000  0.999676 )  


     PseudoPot. # 1 for  C read from file:
     /home/ben/espresso/pp/C.pbe-n-kjpaw_psl.1.0.0.UPF
     MD5 check sum: 151efd6a948e5eaef53e53bb29d01b27
     Pseudo is Projector augmented-wave + core cor, Zval =  4.0
     Generated using "atomic" code by A. Dal Corso  v.5.1
     Shape of augmentation charge: PSQ
     Using radial grid of 1073 points,  4 beta functions with: 
                l(1) =   0
                l(2) =   0
                l(3) =   1
                l(4) =   1
     Q(r) pseudized with 0 coefficients 


     atomic species   valence    mass     pseudopotential
        C              4.00    12.00000      C( 1.00)

      4 Sym. Ops. (no inversion) found



   Cartesian axes

     site n.     atom                  positions (alat units)
         1           C   tau(   1) = (   0.0000000   0.0000000   0.0000000  )
         2           C   tau(   2) = (   0.5090000   0.4910000   0.0000000  )
         3           C   tau(   3) = (   0.5090000   0.0000000   0.5001621  )
         4           C   tau(   4) = (   0.0000000   0.4910000   0.5001621  )
         5           C   tau(   5) = (   0.2545000   0.2455000   0.2500810  )
         6           C   tau(   6) = (   0.7635000   0.7365000   0.2500810  )
         7           C   tau(   7) = (   0.2545000   0.7365000   0.7502431  )
         8           C   tau(   8) = (   0.7635000   0.2455000   0.7502431  )

     number of k points=     8  Marzari-Vanderbilt smearing, width (Ry)=  0.0200
                       cart. coord. in units 2pi/alat
        k(    1) = (   0.1227898   0.1272912   0.1249595), wk =   0.2500000
        k(    2) = (   0.1227898   0.1272912   0.3748785), wk =   0.2500000
        k(    3) = (   0.1227898   0.3818737   0.1249595), wk =   0.2500000
        k(    4) = (   0.1227898   0.3818737   0.3748785), wk =   0.2500000
        k(    5) = (   0.3683694   0.1272912   0.1249595), wk =   0.2500000
        k(    6) = (   0.3683694   0.1272912   0.3748785), wk =   0.2500000
        k(    7) = (   0.3683694   0.3818737   0.1249595), wk =   0.2500000
        k(    8) = (   0.3683694   0.3818737   0.3748785), wk =   0.2500000

     Dense  grid:    14737 G-vectors     FFT dimensions: (  32,  30,  32)

     Smooth grid:     8561 G-vectors     FFT dimensions: (  25,  25,  25)

     Estimated max dynamical RAM per process >       4.09Mb

     Estimated total allocated dynamical RAM >      16.36Mb

     Check: negative/imaginary core charge=   -0.000076    0.000000

     Initial potential from superposition of free atoms

     starting charge   31.99967, renormalised to   32.00000
     Starting wfc are   32 randomized atomic wfcs
     Checking if some PAW data can be deallocated... 

     total cpu time spent up to now is        0.7 secs

     per-process dynamical memory:    16.9 Mb

     Self-consistent Calculation

     iteration #  1     ecut=    35.00 Ry     beta=0.30
     Davidson diagonalization with overlap
     ethr =  1.00E-02,  avg # of iterations =  3.0

     total cpu time spent up to now is        1.1 secs

     total energy              =    -147.54429697 Ry
     Harris-Foulkes estimate   =    -147.62527151 Ry
     estimated scf accuracy    <       0.46446476 Ry

     iteration #  2     ecut=    35.00 Ry     beta=0.30
     Davidson diagonalization with overlap
     ethr =  1.45E-03,  avg # of iterations =  1.0

     total cpu time spent up to now is        1.5 secs

     total energy              =    -147.41949279 Ry
     Harris-Foulkes estimate   =    -147.54729656 Ry
     estimated scf accuracy    <       0.27381393 Ry

     iteration #  3     ecut=    35.00 Ry     beta=0.30
     Davidson diagonalization with overlap
     ethr =  8.56E-04,  avg # of iterations =  2.1

     total cpu time spent up to now is        1.8 secs

     total energy              =    -147.44646107 Ry
     Harris-Foulkes estimate   =    -147.44335694 Ry
     estimated scf accuracy    <       0.00291896 Ry

     iteration #  4     ecut=    35.00 Ry     beta=0.30
     Davidson diagonalization with overlap
     ethr =  9.12E-06,  avg # of iterations =  8.6

     total cpu time spent up to now is        2.4 secs

     total energy              =    -147.44761226 Ry
     Harris-Foulkes estimate   =    -147.44736014 Ry
     estimated scf accuracy    <       0.00022496 Ry

     iteration #  5     ecut=    35.00 Ry     beta=0.30
     Davidson diagonalization with overlap
     ethr =  7.03E-07,  avg # of iterations =  2.0

     total cpu time spent up to now is        2.8 secs

     total energy              =    -147.44761274 Ry
     Harris-Foulkes estimate   =    -147.44765745 Ry
     estimated scf accuracy    <       0.00000851 Ry

     iteration #  6     ecut=    35.00 Ry     beta=0.30
     Davidson diagonalization with overlap
     ethr =  2.66E-08,  avg # of iterations =  2.1

     total cpu time spent up to now is        3.2 secs

     total energy              =    -147.44762034 Ry
     Harris-Foulkes estimate   =    -147.44761635 Ry
     estimated scf accuracy    <       0.00000589 Ry

     iteration #  7     ecut=    35.00 Ry     beta=0.30
     Davidson diagonalization with overlap
     ethr =  1.84E-08,  avg # of iterations =  2.0

     total cpu time spent up to now is        4.0 secs

     End of self-consistent calculation

          k = 0.1228 0.1273 0.1250 (  1077 PWs)   bands (ev):

    -7.7166  -1.3660  -1.1585  -0.9355   2.3563   2.6207   2.8829   5.8080
     5.9717   6.1421   7.1182   7.3898   7.6449  10.8594  12.4687  12.8133
    17.8279  18.2692  18.6786  19.5454

          k = 0.1228 0.1273 0.3749 (  1083 PWs)   bands (ev):

    -6.5783  -4.3477  -0.5692  -0.2812   2.1136   2.1306   4.8289   4.9684
     5.7810   6.7907   7.1785   8.0515   8.2052   8.4772  10.3994  11.2789
    18.4658  19.1244  20.4442  21.1543

          k = 0.1228 0.3819 0.1250 (  1082 PWs)   bands (ev):

    -6.5354  -4.2244  -0.5572  -0.4160   2.0727   2.0738   4.8020   4.8641
     5.7674   6.8950   7.0863   8.1465   8.1792   8.2788  10.2371  11.4760
    18.0488  18.7931  20.9860  21.3273

          k = 0.1228 0.3819 0.3749 (  1076 PWs)   bands (ev):

    -5.4192  -3.2643  -3.1862  -1.3958   1.5905   3.3179   3.3671   5.3039
     5.4507   6.8138   6.8305   8.7306   9.3599   9.3640   9.4792  11.6877
    20.5380  20.9265  21.3080  21.3560

          k = 0.3684 0.1273 0.1250 (  1080 PWs)   bands (ev):

    -6.6175  -4.4612  -0.4293  -0.2814   2.1759   2.1946   4.9231   5.0095
     5.7252   6.8354   7.0364   7.9629   8.2437   8.6828  10.5899  11.0542
    18.8500  19.4287  20.2840  20.6531

          k = 0.3684 0.1273 0.3749 (  1071 PWs)   bands (ev):

    -5.4988  -3.4066  -3.3340  -1.5174   1.8648   3.5574   3.5941   5.6246
     5.8224   7.1890   7.2185   8.8206   9.0038   9.0616   9.1296  11.2168
    19.7056  21.1425  21.3601  21.5574

          k = 0.3684 0.3819 0.1250 (  1077 PWs)   bands (ev):

    -5.4572  -3.3695  -3.2190  -1.4495   1.7191   3.4089   3.4962   5.5319
     5.5516   7.0014   7.0061   8.9151   9.0940   9.1372   9.3215  11.4544
    20.1383  20.8229  21.2505  21.6215

          k = 0.3684 0.3819 0.3749 (  1071 PWs)   bands (ev):

    -4.3783  -2.5036  -2.4505  -2.3946   0.7147   0.7644   0.8118   2.6363
     8.8485   9.0738   9.3556   9.5969   9.8352  10.0249  10.4992  11.0212
    20.5616  20.8743  21.1461  21.2327

     the Fermi energy is    14.5591 ev

!    total energy              =    -147.44762194 Ry
     Harris-Foulkes estimate   =    -147.44762110 Ry
     estimated scf accuracy    <       0.00000007 Ry

     total all-electron energy =      -609.560403 Ry

     The total energy is the sum of the following terms:

     one-electron contribution =      33.71281471 Ry
     hartree contribution      =       7.76373258 Ry
     xc contribution           =     -37.46851603 Ry
     ewald contribution        =    -102.15232872 Ry
     one-center paw contrib.   =     -49.30332448 Ry
     smearing contrib. (-TS)   =       0.00000000 Ry

     convergence has been achieved in   7 iterations

     Forces acting on atoms (Ry/au):

     atom    1 type  1   force =     0.00000000    0.00000000    0.00000000
     atom    2 type  1   force =     0.00000000    0.00000000    0.00000000
     atom    3 type  1   force =     0.00000000    0.00000000    0.00000000
     atom    4 type  1   force =     0.00000000    0.00000000    0.00000000
     atom    5 type  1   force =     0.00000139   -0.00000091   -0.00000358
     atom    6 type  1   force =    -0.00000139    0.00000091   -0.00000358
     atom    7 type  1   force =     0.00000139    0.00000091    0.00000358
     atom    8 type  1   force =    -0.00000139   -0.00000091    0.00000358

     Total force =     0.000008     Total SCF correction =     0.000058
     SCF correction compared to forces is large: reduce conv_thr to get better values


     entering subroutine stress ...

          total   stress  (Ry/bohr**3)                   (kbar)     P=  -46.08
  -0.00144974   0.00000000   0.00000000       -213.26      0.00      0.00
   0.00000000   0.00080392   0.00000000          0.00    118.26      0.00
   0.00000000   0.00000000  -0.00029396          0.00      0.00    -43.24


     Writing output data file template.save

     init_run     :      0.44s CPU      0.45s WALL (       1 calls)
     electrons    :      3.16s CPU      3.26s WALL (       1 calls)
     forces       :      0.56s CPU      0.58s WALL (       1 calls)
     stress       :      1.13s CPU      1.14s WALL (       1 calls)

     Called by init_run:
     wfcinit      :      0.08s CPU      0.09s WALL (       1 calls)
     potinit      :      0.18s CPU      0.18s WALL (       1 calls)

     Called by electrons:
     c_bands      :      1.52s CPU      1.57s WALL (       7 calls)
     sum_band     :      0.30s CPU      0.31s WALL (       7 calls)
     v_of_rho     :      0.11s CPU      0.10s WALL (       8 calls)
     newd         :      0.06s CPU      0.06s WALL (       8 calls)
     PAW_pot      :      1.31s CPU      1.34s WALL (       8 calls)
     mix_rho      :      0.00s CPU      0.01s WALL (       7 calls)

     Called by c_bands:
     init_us_2    :      0.03s CPU      0.03s WALL (     136 calls)
     cegterg      :      1.48s CPU      1.52s WALL (      56 calls)

     Called by sum_band:
     sum_band:bec :      0.00s CPU      0.00s WALL (      56 calls)
     addusdens    :      0.05s CPU      0.05s WALL (       7 calls)

     Called by *egterg:
     h_psi        :      1.05s CPU      1.06s WALL (     231 calls)
     s_psi        :      0.07s CPU      0.06s WALL (     231 calls)
     g_psi        :      0.00s CPU      0.00s WALL (     167 calls)
     cdiaghg      :      0.24s CPU      0.27s WALL (     223 calls)

     Called by h_psi:
     h_psi:pot    :      1.05s CPU      1.06s WALL (     231 calls)
     h_psi:calbec :      0.07s CPU      0.08s WALL (     231 calls)
     vloc_psi     :      0.88s CPU      0.91s WALL (     231 calls)
     add_vuspsi   :      0.10s CPU      0.07s WALL (     231 calls)

     General routines
     calbec       :      0.18s CPU      0.20s WALL (     327 calls)
     fft          :      0.12s CPU      0.11s WALL (     149 calls)
     ffts         :      0.00s CPU      0.00s WALL (      15 calls)
     fftw         :      0.98s CPU      1.00s WALL (    7640 calls)
     interpolate  :      0.01s CPU      0.01s WALL (      15 calls)
     davcio       :      0.00s CPU      0.00s WALL (       8 calls)

     Parallel routines
     fft_scatter  :      0.25s CPU      0.27s WALL (    7804 calls)

     PWSCF        :     5.62s CPU         5.88s WALL


   This run was terminated on:  12:50:21   9Jun2017            

=------------------------------------------------------------------------------=
   JOB DONE.
=------------------------------------------------------------------------------=
