
     Program PWSCF v.6.0 (svn rev. 13079) starts on  9Jun2017 at 12:49:23 

     This program is part of the open-source Quantum ESPRESSO suite
     for quantum simulation of materials; please cite
         "P. Giannozzi et al., J. Phys.:Condens. Matter 21 395502 (2009);
          URL http://www.quantum-espresso.org", 
     in publications or presentations arising from this work. More details at
     http://www.quantum-espresso.org/quote

     Parallel version (MPI), running on     4 processors
     R & G space division:  proc/nbgrp/npool/nimage =       4
     Waiting for input...
     Reading input from standard input
Warning: card &IONS ignored
Warning: card ION_DYNAMICS='BFGS', ignored
Warning: card / ignored
Warning: card &CELL ignored
Warning: card CELL_DYNAMICS='BFGS', ignored
Warning: card PRESS = 0.0, ignored
Warning: card CELL_FACTOR = 2.0, ignored
Warning: card / ignored

     Current dimensions of program PWSCF are:
     Max number of different atomic species (ntypx) = 10
     Max number of k-points (npk) =  40000
     Max angular momentum in pseudopotentials (lmaxx) =  3
               file C.pbe-n-kjpaw_psl.1.0.0.UPF: wavefunction(s)  2S 2P renormalized

     Subspace diagonalization in iterative solution of the eigenvalue problem:
     a serial algorithm will be used

     Found symmetry operation: I + ( -0.5000 -0.5000  0.0000)
     This is a supercell, fractional translations are disabled

     Parallelization info
     --------------------
     sticks:   dense  smooth     PW     G-vecs:    dense   smooth      PW
     Min         181     126     36                 3688     2154     350
     Max         182     127     38                 3689     2155     351
     Sum         725     505    147                14755     8617    1401



     bravais-lattice index     =            0
     lattice parameter (alat)  =       6.7508  a.u.
     unit-cell volume          =     307.6597 (a.u.)^3
     number of atoms/cell      =            8
     number of atomic types    =            1
     number of electrons       =        32.00
     number of Kohn-Sham states=           20
     kinetic-energy cutoff     =      35.0000  Ry
     charge density cutoff     =     200.0000  Ry
     convergence threshold     =      1.0E-06
     mixing beta               =       0.3000
     number of iterations used =           10  TF        mixing
     Exchange-correlation      =  SLA  PW   PBX  PBC ( 1  4  3  4 0 0)

     celldm(1)=   6.750826  celldm(2)=   0.000000  celldm(3)=   0.000000
     celldm(4)=   0.000000  celldm(5)=   0.000000  celldm(6)=   0.000000

     crystal axes: (cart. coord. in units of alat)
               a(1) = (   1.002000   0.000000   0.000000 )  
               a(2) = (   0.000000   0.998000   0.000000 )  
               a(3) = (   0.000000   0.000000   1.000004 )  

     reciprocal axes: (cart. coord. in units 2 pi/alat)
               b(1) = (  0.998004  0.000000  0.000000 )  
               b(2) = (  0.000000  1.002004  0.000000 )  
               b(3) = (  0.000000  0.000000  0.999996 )  


     PseudoPot. # 1 for  C read from file:
     /home/ben/espresso/pp/C.pbe-n-kjpaw_psl.1.0.0.UPF
     MD5 check sum: 151efd6a948e5eaef53e53bb29d01b27
     Pseudo is Projector augmented-wave + core cor, Zval =  4.0
     Generated using "atomic" code by A. Dal Corso  v.5.1
     Shape of augmentation charge: PSQ
     Using radial grid of 1073 points,  4 beta functions with: 
                l(1) =   0
                l(2) =   0
                l(3) =   1
                l(4) =   1
     Q(r) pseudized with 0 coefficients 


     atomic species   valence    mass     pseudopotential
        C              4.00    12.00000      C( 1.00)

      4 Sym. Ops. (no inversion) found



   Cartesian axes

     site n.     atom                  positions (alat units)
         1           C   tau(   1) = (   0.0000000   0.0000000   0.0000000  )
         2           C   tau(   2) = (   0.5010000   0.4990000   0.0000000  )
         3           C   tau(   3) = (   0.5010000   0.0000000   0.5000020  )
         4           C   tau(   4) = (   0.0000000   0.4990000   0.5000020  )
         5           C   tau(   5) = (   0.2505000   0.2495000   0.2500010  )
         6           C   tau(   6) = (   0.7515000   0.7485000   0.2500010  )
         7           C   tau(   7) = (   0.2505000   0.7485000   0.7500030  )
         8           C   tau(   8) = (   0.7515000   0.2495000   0.7500030  )

     number of k points=     8  Marzari-Vanderbilt smearing, width (Ry)=  0.0200
                       cart. coord. in units 2pi/alat
        k(    1) = (   0.1247505   0.1252505   0.1249995), wk =   0.2500000
        k(    2) = (   0.1247505   0.1252505   0.3749985), wk =   0.2500000
        k(    3) = (   0.1247505   0.3757515   0.1249995), wk =   0.2500000
        k(    4) = (   0.1247505   0.3757515   0.3749985), wk =   0.2500000
        k(    5) = (   0.3742515   0.1252505   0.1249995), wk =   0.2500000
        k(    6) = (   0.3742515   0.1252505   0.3749985), wk =   0.2500000
        k(    7) = (   0.3742515   0.3757515   0.1249995), wk =   0.2500000
        k(    8) = (   0.3742515   0.3757515   0.3749985), wk =   0.2500000

     Dense  grid:    14755 G-vectors     FFT dimensions: (  32,  32,  32)

     Smooth grid:     8617 G-vectors     FFT dimensions: (  25,  25,  25)

     Estimated max dynamical RAM per process >       4.13Mb

     Estimated total allocated dynamical RAM >      16.51Mb

     Check: negative/imaginary core charge=   -0.000073    0.000000

     Initial potential from superposition of free atoms

     starting charge   31.99967, renormalised to   32.00000
     Starting wfc are   32 randomized atomic wfcs
     Checking if some PAW data can be deallocated... 

     total cpu time spent up to now is        0.7 secs

     per-process dynamical memory:    16.8 Mb

     Self-consistent Calculation

     iteration #  1     ecut=    35.00 Ry     beta=0.30
     Davidson diagonalization with overlap
     ethr =  1.00E-02,  avg # of iterations =  2.9

     total cpu time spent up to now is        1.1 secs

     total energy              =    -147.55039656 Ry
     Harris-Foulkes estimate   =    -147.63155284 Ry
     estimated scf accuracy    <       0.46527835 Ry

     iteration #  2     ecut=    35.00 Ry     beta=0.30
     Davidson diagonalization with overlap
     ethr =  1.45E-03,  avg # of iterations =  1.0

     total cpu time spent up to now is        1.5 secs

     total energy              =    -147.42523813 Ry
     Harris-Foulkes estimate   =    -147.55338085 Ry
     estimated scf accuracy    <       0.27436535 Ry

     iteration #  3     ecut=    35.00 Ry     beta=0.30
     Davidson diagonalization with overlap
     ethr =  8.57E-04,  avg # of iterations =  2.2

     total cpu time spent up to now is        2.4 secs

     total energy              =    -147.45234102 Ry
     Harris-Foulkes estimate   =    -147.44921414 Ry
     estimated scf accuracy    <       0.00293500 Ry

     iteration #  4     ecut=    35.00 Ry     beta=0.30
     Davidson diagonalization with overlap
     ethr =  9.17E-06,  avg # of iterations =  7.8

     total cpu time spent up to now is        4.0 secs

     total energy              =    -147.45344349 Ry
     Harris-Foulkes estimate   =    -147.45319606 Ry
     estimated scf accuracy    <       0.00019897 Ry

     iteration #  5     ecut=    35.00 Ry     beta=0.30
     Davidson diagonalization with overlap
     ethr =  6.22E-07,  avg # of iterations =  2.0

     total cpu time spent up to now is        5.0 secs

     total energy              =    -147.45344138 Ry
     Harris-Foulkes estimate   =    -147.45348457 Ry
     estimated scf accuracy    <       0.00000816 Ry

     iteration #  6     ecut=    35.00 Ry     beta=0.30
     Davidson diagonalization with overlap
     ethr =  2.55E-08,  avg # of iterations =  2.4

     total cpu time spent up to now is        6.3 secs

     total energy              =    -147.45344820 Ry
     Harris-Foulkes estimate   =    -147.45344515 Ry
     estimated scf accuracy    <       0.00000604 Ry

     iteration #  7     ecut=    35.00 Ry     beta=0.30
     Davidson diagonalization with overlap
     ethr =  1.89E-08,  avg # of iterations =  2.0

     total cpu time spent up to now is        7.4 secs

     End of self-consistent calculation

          k = 0.1248 0.1253 0.1250 (  1082 PWs)   bands (ev):

    -7.7182  -1.1814  -1.1577  -1.1337   2.5908   2.6202   2.6494   5.9430
     5.9616   5.9802   7.3450   7.3749   7.4040  10.8672  12.6120  12.6504
    18.2038  18.2513  18.2983  19.7114

          k = 0.1248 0.1253 0.3750 (  1077 PWs)   bands (ev):

    -6.5794  -4.3477  -0.4396  -0.4075   2.1272   2.1294   4.8855   4.9025
     5.7730   6.9326   6.9760   8.0696   8.2003   8.4417  10.4140  11.2508
    18.4491  19.1108  20.7631  20.8421

          k = 0.1248 0.3758 0.1250 (  1077 PWs)   bands (ev):

    -6.5748  -4.3346  -0.4388  -0.4228   2.1217   2.1227   4.8822   4.8909
     5.7747   6.9463   6.9679   8.0856   8.1946   8.4159  10.3944  11.2743
    18.4043  19.0752  20.8213  20.8606

          k = 0.1248 0.3758 0.3750 (  1077 PWs)   bands (ev):

    -5.4568  -3.2967  -3.2883  -1.4504   1.7029   3.4376   3.4426   5.5217
     5.5260   6.9942   6.9945   8.9019   9.1181   9.2269   9.2374  11.4750
    20.1662  21.2041  21.2491  21.3859

          k = 0.3743 0.1253 0.1250 (  1076 PWs)   bands (ev):

    -6.5839  -4.3608  -0.4243  -0.4082   2.1339   2.1352   4.8969   4.9059
     5.7704   6.9401   6.9618   8.0548   8.2058   8.4669  10.4356  11.2271
    18.4934  19.1463  20.7448  20.7844

          k = 0.3743 0.1253 0.3750 (  1073 PWs)   bands (ev):

    -5.4656  -3.3127  -3.3044  -1.4639   1.7333   3.4637   3.4684   5.5414
     5.5835   7.0370   7.0376   8.9472   9.0580   9.1838   9.1936  11.4228
    20.0736  21.2252  21.2693  21.3977

          k = 0.3743 0.3758 0.1250 (  1076 PWs)   bands (ev):

    -5.4612  -3.3088  -3.2921  -1.4570   1.7179   3.4482   3.4578   5.5313
     5.5546   7.0155   7.0161   8.9239   9.0880   9.2003   9.2210  11.4490
    20.1201  21.1929  21.2814  21.3899

          k = 0.3743 0.3758 0.3750 (  1064 PWs)   bands (ev):

    -4.3817  -2.4597  -2.4537  -2.4477   0.7535   0.7590   0.7644   2.6308
     9.1065   9.1378   9.1705   9.7391   9.7670   9.7934  10.7286  10.7865
    20.8545  20.8876  20.9201  21.6398

     the Fermi energy is    14.5724 ev

!    total energy              =    -147.45344981 Ry
     Harris-Foulkes estimate   =    -147.45344902 Ry
     estimated scf accuracy    <       0.00000005 Ry

     total all-electron energy =      -609.566231 Ry

     The total energy is the sum of the following terms:

     one-electron contribution =      33.68366491 Ry
     hartree contribution      =       7.77478204 Ry
     xc contribution           =     -37.47111956 Ry
     ewald contribution        =    -102.13734639 Ry
     one-center paw contrib.   =     -49.30343080 Ry
     smearing contrib. (-TS)   =       0.00000000 Ry

     convergence has been achieved in   7 iterations

     Forces acting on atoms (Ry/au):

     atom    1 type  1   force =     0.00000000    0.00000000    0.00000000
     atom    2 type  1   force =     0.00000000    0.00000000    0.00000000
     atom    3 type  1   force =     0.00000000    0.00000000    0.00000000
     atom    4 type  1   force =     0.00000000    0.00000000    0.00000000
     atom    5 type  1   force =     0.00000149   -0.00000176   -0.00000501
     atom    6 type  1   force =    -0.00000149    0.00000176   -0.00000501
     atom    7 type  1   force =     0.00000149    0.00000176    0.00000501
     atom    8 type  1   force =    -0.00000149   -0.00000176    0.00000501

     Total force =     0.000011     Total SCF correction =     0.000094
     SCF correction compared to forces is large: reduce conv_thr to get better values


     entering subroutine stress ...

          total   stress  (Ry/bohr**3)                   (kbar)     P=  -47.34
  -0.00044904   0.00000000   0.00000000        -66.06      0.00      0.00
   0.00000000  -0.00019504   0.00000000          0.00    -28.69      0.00
   0.00000000   0.00000000  -0.00032130          0.00      0.00    -47.27


     Writing output data file template.save

     init_run     :      0.40s CPU      0.43s WALL (       1 calls)
     electrons    :      6.43s CPU      6.72s WALL (       1 calls)
     forces       :      0.58s CPU      0.58s WALL (       1 calls)
     stress       :      1.15s CPU      1.18s WALL (       1 calls)

     Called by init_run:
     wfcinit      :      0.08s CPU      0.09s WALL (       1 calls)
     potinit      :      0.16s CPU      0.16s WALL (       1 calls)

     Called by electrons:
     c_bands      :      3.52s CPU      3.71s WALL (       7 calls)
     sum_band     :      0.56s CPU      0.59s WALL (       7 calls)
     v_of_rho     :      0.13s CPU      0.15s WALL (       8 calls)
     newd         :      0.10s CPU      0.11s WALL (       8 calls)
     PAW_pot      :      2.18s CPU      2.25s WALL (       8 calls)
     mix_rho      :      0.02s CPU      0.02s WALL (       7 calls)

     Called by c_bands:
     init_us_2    :      0.03s CPU      0.05s WALL (     136 calls)
     cegterg      :      3.42s CPU      3.61s WALL (      56 calls)

     Called by sum_band:
     sum_band:bec :      0.01s CPU      0.00s WALL (      56 calls)
     addusdens    :      0.09s CPU      0.11s WALL (       7 calls)

     Called by *egterg:
     h_psi        :      2.27s CPU      2.38s WALL (     226 calls)
     s_psi        :      0.13s CPU      0.14s WALL (     226 calls)
     g_psi        :      0.02s CPU      0.01s WALL (     162 calls)
     cdiaghg      :      0.59s CPU      0.63s WALL (     218 calls)

     Called by h_psi:
     h_psi:pot    :      2.26s CPU      2.37s WALL (     226 calls)
     h_psi:calbec :      0.18s CPU      0.17s WALL (     226 calls)
     vloc_psi     :      1.91s CPU      2.05s WALL (     226 calls)
     add_vuspsi   :      0.16s CPU      0.15s WALL (     226 calls)

     General routines
     calbec       :      0.30s CPU      0.30s WALL (     322 calls)
     fft          :      0.15s CPU      0.14s WALL (     149 calls)
     ffts         :      0.00s CPU      0.01s WALL (      15 calls)
     fftw         :      2.10s CPU      2.21s WALL (    7648 calls)
     interpolate  :      0.03s CPU      0.02s WALL (      15 calls)
     davcio       :      0.00s CPU      0.00s WALL (       8 calls)

     Parallel routines
     fft_scatter  :      0.59s CPU      0.68s WALL (    7812 calls)

     PWSCF        :     8.88s CPU         9.34s WALL


   This run was terminated on:  12:49:32   9Jun2017            

=------------------------------------------------------------------------------=
   JOB DONE.
=------------------------------------------------------------------------------=
