
     Program PWSCF v.6.0 (svn rev. 13079) starts on  9Jun2017 at 12:50: 7 

     This program is part of the open-source Quantum ESPRESSO suite
     for quantum simulation of materials; please cite
         "P. Giannozzi et al., J. Phys.:Condens. Matter 21 395502 (2009);
          URL http://www.quantum-espresso.org", 
     in publications or presentations arising from this work. More details at
     http://www.quantum-espresso.org/quote

     Parallel version (MPI), running on     4 processors
     R & G space division:  proc/nbgrp/npool/nimage =       4
     Waiting for input...
     Reading input from standard input
Warning: card &IONS ignored
Warning: card ION_DYNAMICS='BFGS', ignored
Warning: card / ignored
Warning: card &CELL ignored
Warning: card CELL_DYNAMICS='BFGS', ignored
Warning: card PRESS = 0.0, ignored
Warning: card CELL_FACTOR = 2.0, ignored
Warning: card / ignored

     Current dimensions of program PWSCF are:
     Max number of different atomic species (ntypx) = 10
     Max number of k-points (npk) =  40000
     Max angular momentum in pseudopotentials (lmaxx) =  3
               file C.pbe-n-kjpaw_psl.1.0.0.UPF: wavefunction(s)  2S 2P renormalized

     Subspace diagonalization in iterative solution of the eigenvalue problem:
     a serial algorithm will be used

     Found symmetry operation: I + (  0.5000  0.5000  0.0000)
     This is a supercell, fractional translations are disabled

     Parallelization info
     --------------------
     sticks:   dense  smooth     PW     G-vecs:    dense   smooth      PW
     Min         181     125     37                 3682     2143     350
     Max         182     126     38                 3683     2146     351
     Sum         727     501    151                14729     8577    1401



     bravais-lattice index     =            0
     lattice parameter (alat)  =       6.7508  a.u.
     unit-cell volume          =     307.6597 (a.u.)^3
     number of atoms/cell      =            8
     number of atomic types    =            1
     number of electrons       =        32.00
     number of Kohn-Sham states=           20
     kinetic-energy cutoff     =      35.0000  Ry
     charge density cutoff     =     200.0000  Ry
     convergence threshold     =      1.0E-06
     mixing beta               =       0.3000
     number of iterations used =           10  TF        mixing
     Exchange-correlation      =  SLA  PW   PBX  PBC ( 1  4  3  4 0 0)

     celldm(1)=   6.750826  celldm(2)=   0.000000  celldm(3)=   0.000000
     celldm(4)=   0.000000  celldm(5)=   0.000000  celldm(6)=   0.000000

     crystal axes: (cart. coord. in units of alat)
               a(1) = (   1.014000   0.000000   0.000000 )  
               a(2) = (   0.000000   0.986000   0.000000 )  
               a(3) = (   0.000000   0.000000   1.000196 )  

     reciprocal axes: (cart. coord. in units 2 pi/alat)
               b(1) = (  0.986193  0.000000  0.000000 )  
               b(2) = (  0.000000  1.014199  0.000000 )  
               b(3) = (  0.000000  0.000000  0.999804 )  


     PseudoPot. # 1 for  C read from file:
     /home/ben/espresso/pp/C.pbe-n-kjpaw_psl.1.0.0.UPF
     MD5 check sum: 151efd6a948e5eaef53e53bb29d01b27
     Pseudo is Projector augmented-wave + core cor, Zval =  4.0
     Generated using "atomic" code by A. Dal Corso  v.5.1
     Shape of augmentation charge: PSQ
     Using radial grid of 1073 points,  4 beta functions with: 
                l(1) =   0
                l(2) =   0
                l(3) =   1
                l(4) =   1
     Q(r) pseudized with 0 coefficients 


     atomic species   valence    mass     pseudopotential
        C              4.00    12.00000      C( 1.00)

      4 Sym. Ops. (no inversion) found



   Cartesian axes

     site n.     atom                  positions (alat units)
         1           C   tau(   1) = (   0.0000000   0.0000000   0.0000000  )
         2           C   tau(   2) = (   0.5070000   0.4930000   0.0000000  )
         3           C   tau(   3) = (   0.5070000   0.0000000   0.5000980  )
         4           C   tau(   4) = (   0.0000000   0.4930000   0.5000980  )
         5           C   tau(   5) = (   0.2535000   0.2465000   0.2500490  )
         6           C   tau(   6) = (   0.7605000   0.7395000   0.2500490  )
         7           C   tau(   7) = (   0.2535000   0.7395000   0.7501470  )
         8           C   tau(   8) = (   0.7605000   0.2465000   0.7501470  )

     number of k points=     8  Marzari-Vanderbilt smearing, width (Ry)=  0.0200
                       cart. coord. in units 2pi/alat
        k(    1) = (   0.1232742   0.1267748   0.1249755), wk =   0.2500000
        k(    2) = (   0.1232742   0.1267748   0.3749265), wk =   0.2500000
        k(    3) = (   0.1232742   0.3803245   0.1249755), wk =   0.2500000
        k(    4) = (   0.1232742   0.3803245   0.3749265), wk =   0.2500000
        k(    5) = (   0.3698225   0.1267748   0.1249755), wk =   0.2500000
        k(    6) = (   0.3698225   0.1267748   0.3749265), wk =   0.2500000
        k(    7) = (   0.3698225   0.3803245   0.1249755), wk =   0.2500000
        k(    8) = (   0.3698225   0.3803245   0.3749265), wk =   0.2500000

     Dense  grid:    14729 G-vectors     FFT dimensions: (  32,  30,  32)

     Smooth grid:     8577 G-vectors     FFT dimensions: (  25,  25,  25)

     Estimated max dynamical RAM per process >       4.09Mb

     Estimated total allocated dynamical RAM >      16.35Mb

     Check: negative/imaginary core charge=   -0.000077    0.000000

     Initial potential from superposition of free atoms

     starting charge   31.99967, renormalised to   32.00000
     Starting wfc are   32 randomized atomic wfcs
     Checking if some PAW data can be deallocated... 

     total cpu time spent up to now is        0.7 secs

     per-process dynamical memory:    16.9 Mb

     Self-consistent Calculation

     iteration #  1     ecut=    35.00 Ry     beta=0.30
     Davidson diagonalization with overlap
     ethr =  1.00E-02,  avg # of iterations =  2.6

     total cpu time spent up to now is        1.1 secs

     total energy              =    -147.54670506 Ry
     Harris-Foulkes estimate   =    -147.62774897 Ry
     estimated scf accuracy    <       0.46479408 Ry

     iteration #  2     ecut=    35.00 Ry     beta=0.30
     Davidson diagonalization with overlap
     ethr =  1.45E-03,  avg # of iterations =  1.0

     total cpu time spent up to now is        1.4 secs

     total energy              =    -147.42181922 Ry
     Harris-Foulkes estimate   =    -147.54971499 Ry
     estimated scf accuracy    <       0.27399520 Ry

     iteration #  3     ecut=    35.00 Ry     beta=0.30
     Davidson diagonalization with overlap
     ethr =  8.56E-04,  avg # of iterations =  2.1

     total cpu time spent up to now is        1.7 secs

     total energy              =    -147.44880995 Ry
     Harris-Foulkes estimate   =    -147.44570166 Ry
     estimated scf accuracy    <       0.00292520 Ry

     iteration #  4     ecut=    35.00 Ry     beta=0.30
     Davidson diagonalization with overlap
     ethr =  9.14E-06,  avg # of iterations =  8.1

     total cpu time spent up to now is        2.3 secs

     total energy              =    -147.44994418 Ry
     Harris-Foulkes estimate   =    -147.44968725 Ry
     estimated scf accuracy    <       0.00022554 Ry

     iteration #  5     ecut=    35.00 Ry     beta=0.30
     Davidson diagonalization with overlap
     ethr =  7.05E-07,  avg # of iterations =  2.0

     total cpu time spent up to now is        2.6 secs

     total energy              =    -147.44994514 Ry
     Harris-Foulkes estimate   =    -147.44998954 Ry
     estimated scf accuracy    <       0.00000844 Ry

     iteration #  6     ecut=    35.00 Ry     beta=0.30
     Davidson diagonalization with overlap
     ethr =  2.64E-08,  avg # of iterations =  2.2

     total cpu time spent up to now is        3.0 secs

     total energy              =    -147.44995258 Ry
     Harris-Foulkes estimate   =    -147.44994875 Ry
     estimated scf accuracy    <       0.00000575 Ry

     iteration #  7     ecut=    35.00 Ry     beta=0.30
     Davidson diagonalization with overlap
     ethr =  1.80E-08,  avg # of iterations =  2.0

     total cpu time spent up to now is        3.3 secs

     End of self-consistent calculation

          k = 0.1233 0.1268 0.1250 (  1079 PWs)   bands (ev):

    -7.7173  -1.3210  -1.1583  -0.9861   2.4150   2.6204   2.8251   5.8388
     5.9670   6.0994   7.1741   7.3841   7.5842  10.8633  12.5026  12.7714
    17.9216  18.2618  18.5832  19.5946

          k = 0.1233 0.1268 0.3749 (  1078 PWs)   bands (ev):

    -6.5788  -4.3477  -0.5368  -0.3124   2.1175   2.1316   4.8409   4.9533
     5.7778   6.8209   7.1242   8.0585   8.2027   8.4644  10.4050  11.2677
    18.4599  19.1192  20.5245  21.0768

          k = 0.1233 0.3803 0.1250 (  1081 PWs)   bands (ev):

    -6.5457  -4.2528  -0.5285  -0.4178   2.0845   2.0865   4.8198   4.8708
     5.7724   6.9058   7.0558   8.1591   8.1814   8.2823  10.2751  11.4250
    18.1375  18.8635  20.9426  21.2102

          k = 0.1233 0.3803 0.3749 (  1076 PWs)   bands (ev):

    -5.4290  -3.2727  -3.2124  -1.4096   1.6172   3.3472   3.3846   5.3580
     5.4673   6.8598   6.8700   8.7724   9.3028   9.3270   9.4153  11.6341
    20.4451  20.9982  21.3281  21.3325

          k = 0.3698 0.1268 0.1250 (  1080 PWs)   bands (ev):

    -6.6096  -4.4369  -0.4282  -0.3137   2.1657   2.1789   4.9165   4.9820
     5.7409   6.8597   7.0155   7.9809   8.2350   8.6285  10.5530  11.0923
    18.7607  19.3584  20.3982  20.6831

          k = 0.3698 0.1268 0.3749 (  1070 PWs)   bands (ev):

    -5.4909  -3.3839  -3.3269  -1.5041   1.8306   3.5327   3.5624   5.6024
     5.7617   7.1546   7.1722   8.8801   9.0430   9.0840   9.0944  11.2665
    19.7977  21.1615  21.3942  21.6090

          k = 0.3698 0.3803 0.1250 (  1073 PWs)   bands (ev):

    -5.4589  -3.3553  -3.2382  -1.4526   1.7187   3.4190   3.4868   5.5313
     5.5529   7.0071   7.0103   8.9185   9.0926   9.1510   9.2941  11.4512
    20.1313  20.9179  21.3021  21.5396

          k = 0.3698 0.3803 0.3749 (  1070 PWs)   bands (ev):

    -4.3798  -2.4935  -2.4519  -2.4087   0.7237   0.7619   0.7991   2.6342
     8.9131   9.0972   9.3346   9.6078   9.8087   9.9659  10.5557  10.9631
    20.6390  20.8797  21.0959  21.3477

     the Fermi energy is    14.5495 ev

!    total energy              =    -147.44995423 Ry
     Harris-Foulkes estimate   =    -147.44995335 Ry
     estimated scf accuracy    <       0.00000006 Ry

     total all-electron energy =      -609.562736 Ry

     The total energy is the sum of the following terms:

     one-electron contribution =      33.70122001 Ry
     hartree contribution      =       7.76815457 Ry
     xc contribution           =     -37.46961821 Ry
     ewald contribution        =    -102.14633686 Ry
     one-center paw contrib.   =     -49.30337374 Ry
     smearing contrib. (-TS)   =       0.00000000 Ry

     convergence has been achieved in   7 iterations

     Forces acting on atoms (Ry/au):

     atom    1 type  1   force =     0.00000000    0.00000000    0.00000000
     atom    2 type  1   force =     0.00000000    0.00000000    0.00000000
     atom    3 type  1   force =     0.00000000    0.00000000    0.00000000
     atom    4 type  1   force =     0.00000000    0.00000000    0.00000000
     atom    5 type  1   force =     0.00000276   -0.00000054   -0.00000435
     atom    6 type  1   force =    -0.00000276    0.00000054   -0.00000435
     atom    7 type  1   force =     0.00000276    0.00000054    0.00000435
     atom    8 type  1   force =    -0.00000276   -0.00000054    0.00000435

     Total force =     0.000010     Total SCF correction =     0.000087
     SCF correction compared to forces is large: reduce conv_thr to get better values


     entering subroutine stress ...

          total   stress  (Ry/bohr**3)                   (kbar)     P=  -46.55
  -0.00119691   0.00000000   0.00000000       -176.07      0.00      0.00
   0.00000000   0.00055244   0.00000000          0.00     81.27      0.00
   0.00000000   0.00000000  -0.00030485          0.00      0.00    -44.85


     Writing output data file template.save

     init_run     :      0.44s CPU      0.44s WALL (       1 calls)
     electrons    :      2.48s CPU      2.55s WALL (       1 calls)
     forces       :      0.16s CPU      0.17s WALL (       1 calls)
     stress       :      0.32s CPU      0.33s WALL (       1 calls)

     Called by init_run:
     wfcinit      :      0.09s CPU      0.09s WALL (       1 calls)
     potinit      :      0.16s CPU      0.17s WALL (       1 calls)

     Called by electrons:
     c_bands      :      1.34s CPU      1.38s WALL (       7 calls)
     sum_band     :      0.22s CPU      0.23s WALL (       7 calls)
     v_of_rho     :      0.07s CPU      0.07s WALL (       8 calls)
     newd         :      0.04s CPU      0.05s WALL (       8 calls)
     PAW_pot      :      0.91s CPU      0.94s WALL (       8 calls)
     mix_rho      :      0.02s CPU      0.01s WALL (       7 calls)

     Called by c_bands:
     init_us_2    :      0.02s CPU      0.02s WALL (     136 calls)
     cegterg      :      1.30s CPU      1.34s WALL (      56 calls)

     Called by sum_band:
     sum_band:bec :      0.00s CPU      0.00s WALL (      56 calls)
     addusdens    :      0.04s CPU      0.04s WALL (       7 calls)

     Called by *egterg:
     h_psi        :      0.89s CPU      0.95s WALL (     225 calls)
     s_psi        :      0.07s CPU      0.05s WALL (     225 calls)
     g_psi        :      0.00s CPU      0.00s WALL (     161 calls)
     cdiaghg      :      0.25s CPU      0.23s WALL (     217 calls)

     Called by h_psi:
     h_psi:pot    :      0.88s CPU      0.94s WALL (     225 calls)
     h_psi:calbec :      0.04s CPU      0.07s WALL (     225 calls)
     vloc_psi     :      0.80s CPU      0.82s WALL (     225 calls)
     add_vuspsi   :      0.05s CPU      0.05s WALL (     225 calls)

     General routines
     calbec       :      0.10s CPU      0.11s WALL (     321 calls)
     fft          :      0.07s CPU      0.07s WALL (     149 calls)
     ffts         :      0.00s CPU      0.00s WALL (      15 calls)
     fftw         :      0.85s CPU      0.88s WALL (    7648 calls)
     interpolate  :      0.01s CPU      0.01s WALL (      15 calls)
     davcio       :      0.00s CPU      0.00s WALL (       8 calls)

     Parallel routines
     fft_scatter  :      0.20s CPU      0.25s WALL (    7812 calls)

     PWSCF        :     3.66s CPU         3.82s WALL


   This run was terminated on:  12:50:11   9Jun2017            

=------------------------------------------------------------------------------=
   JOB DONE.
=------------------------------------------------------------------------------=
