
     Program PWSCF v.6.0 (svn rev. 13079) starts on  9Jun2017 at 12:49:49 

     This program is part of the open-source Quantum ESPRESSO suite
     for quantum simulation of materials; please cite
         "P. Giannozzi et al., J. Phys.:Condens. Matter 21 395502 (2009);
          URL http://www.quantum-espresso.org", 
     in publications or presentations arising from this work. More details at
     http://www.quantum-espresso.org/quote

     Parallel version (MPI), running on     4 processors
     R & G space division:  proc/nbgrp/npool/nimage =       4
     Waiting for input...
     Reading input from standard input
Warning: card &IONS ignored
Warning: card ION_DYNAMICS='BFGS', ignored
Warning: card / ignored
Warning: card &CELL ignored
Warning: card CELL_DYNAMICS='BFGS', ignored
Warning: card PRESS = 0.0, ignored
Warning: card CELL_FACTOR = 2.0, ignored
Warning: card / ignored

     Current dimensions of program PWSCF are:
     Max number of different atomic species (ntypx) = 10
     Max number of k-points (npk) =  40000
     Max angular momentum in pseudopotentials (lmaxx) =  3
               file C.pbe-n-kjpaw_psl.1.0.0.UPF: wavefunction(s)  2S 2P renormalized

     Subspace diagonalization in iterative solution of the eigenvalue problem:
     a serial algorithm will be used

     Found symmetry operation: I + ( -0.5000 -0.5000  0.0000)
     This is a supercell, fractional translations are disabled

     Parallelization info
     --------------------
     sticks:   dense  smooth     PW     G-vecs:    dense   smooth      PW
     Min         182     125     37                 3681     2143     350
     Max         183     126     38                 3682     2144     351
     Sum         729     501    151                14727     8573    1401



     bravais-lattice index     =            0
     lattice parameter (alat)  =       6.7508  a.u.
     unit-cell volume          =     307.6597 (a.u.)^3
     number of atoms/cell      =            8
     number of atomic types    =            1
     number of electrons       =        32.00
     number of Kohn-Sham states=           20
     kinetic-energy cutoff     =      35.0000  Ry
     charge density cutoff     =     200.0000  Ry
     convergence threshold     =      1.0E-06
     mixing beta               =       0.3000
     number of iterations used =           10  TF        mixing
     Exchange-correlation      =  SLA  PW   PBX  PBC ( 1  4  3  4 0 0)

     celldm(1)=   6.750826  celldm(2)=   0.000000  celldm(3)=   0.000000
     celldm(4)=   0.000000  celldm(5)=   0.000000  celldm(6)=   0.000000

     crystal axes: (cart. coord. in units of alat)
               a(1) = (   1.010000   0.000000   0.000000 )  
               a(2) = (   0.000000   0.990000   0.000000 )  
               a(3) = (   0.000000   0.000000   1.000100 )  

     reciprocal axes: (cart. coord. in units 2 pi/alat)
               b(1) = (  0.990099  0.000000  0.000000 )  
               b(2) = (  0.000000  1.010101  0.000000 )  
               b(3) = (  0.000000  0.000000  0.999900 )  


     PseudoPot. # 1 for  C read from file:
     /home/ben/espresso/pp/C.pbe-n-kjpaw_psl.1.0.0.UPF
     MD5 check sum: 151efd6a948e5eaef53e53bb29d01b27
     Pseudo is Projector augmented-wave + core cor, Zval =  4.0
     Generated using "atomic" code by A. Dal Corso  v.5.1
     Shape of augmentation charge: PSQ
     Using radial grid of 1073 points,  4 beta functions with: 
                l(1) =   0
                l(2) =   0
                l(3) =   1
                l(4) =   1
     Q(r) pseudized with 0 coefficients 


     atomic species   valence    mass     pseudopotential
        C              4.00    12.00000      C( 1.00)

      4 Sym. Ops. (no inversion) found



   Cartesian axes

     site n.     atom                  positions (alat units)
         1           C   tau(   1) = (   0.0000000   0.0000000   0.0000000  )
         2           C   tau(   2) = (   0.5050000   0.4950000   0.0000000  )
         3           C   tau(   3) = (   0.5050000   0.0000000   0.5000500  )
         4           C   tau(   4) = (   0.0000000   0.4950000   0.5000500  )
         5           C   tau(   5) = (   0.2525000   0.2475000   0.2500250  )
         6           C   tau(   6) = (   0.7575000   0.7425000   0.2500250  )
         7           C   tau(   7) = (   0.2525000   0.7425000   0.7500750  )
         8           C   tau(   8) = (   0.7575000   0.2475000   0.7500750  )

     number of k points=     8  Marzari-Vanderbilt smearing, width (Ry)=  0.0200
                       cart. coord. in units 2pi/alat
        k(    1) = (   0.1237624   0.1262626   0.1249875), wk =   0.2500000
        k(    2) = (   0.1237624   0.1262626   0.3749625), wk =   0.2500000
        k(    3) = (   0.1237624   0.3787879   0.1249875), wk =   0.2500000
        k(    4) = (   0.1237624   0.3787879   0.3749625), wk =   0.2500000
        k(    5) = (   0.3712871   0.1262626   0.1249875), wk =   0.2500000
        k(    6) = (   0.3712871   0.1262626   0.3749625), wk =   0.2500000
        k(    7) = (   0.3712871   0.3787879   0.1249875), wk =   0.2500000
        k(    8) = (   0.3712871   0.3787879   0.3749625), wk =   0.2500000

     Dense  grid:    14727 G-vectors     FFT dimensions: (  32,  32,  32)

     Smooth grid:     8573 G-vectors     FFT dimensions: (  25,  25,  25)

     Estimated max dynamical RAM per process >       4.12Mb

     Estimated total allocated dynamical RAM >      16.49Mb

     Check: negative/imaginary core charge=   -0.000075    0.000000

     Initial potential from superposition of free atoms

     starting charge   31.99967, renormalised to   32.00000
     Starting wfc are   32 randomized atomic wfcs
     Checking if some PAW data can be deallocated... 

     total cpu time spent up to now is        0.8 secs

     per-process dynamical memory:    16.8 Mb

     Self-consistent Calculation

     iteration #  1     ecut=    35.00 Ry     beta=0.30
     Davidson diagonalization with overlap
     ethr =  1.00E-02,  avg # of iterations =  2.6

     total cpu time spent up to now is        1.1 secs

     total energy              =    -147.54845655 Ry
     Harris-Foulkes estimate   =    -147.62957412 Ry
     estimated scf accuracy    <       0.46507877 Ry

     iteration #  2     ecut=    35.00 Ry     beta=0.30
     Davidson diagonalization with overlap
     ethr =  1.45E-03,  avg # of iterations =  1.0

     total cpu time spent up to now is        1.9 secs

     total energy              =    -147.42344492 Ry
     Harris-Foulkes estimate   =    -147.55146157 Ry
     estimated scf accuracy    <       0.27418031 Ry

     iteration #  3     ecut=    35.00 Ry     beta=0.30
     Davidson diagonalization with overlap
     ethr =  8.57E-04,  avg # of iterations =  1.9

     total cpu time spent up to now is        2.9 secs

     total energy              =    -147.45045885 Ry
     Harris-Foulkes estimate   =    -147.44734515 Ry
     estimated scf accuracy    <       0.00292958 Ry

     iteration #  4     ecut=    35.00 Ry     beta=0.30
     Davidson diagonalization with overlap
     ethr =  9.15E-06,  avg # of iterations =  8.4

     total cpu time spent up to now is        5.2 secs

     total energy              =    -147.45160169 Ry
     Harris-Foulkes estimate   =    -147.45134906 Ry
     estimated scf accuracy    <       0.00022448 Ry

     iteration #  5     ecut=    35.00 Ry     beta=0.30
     Davidson diagonalization with overlap
     ethr =  7.02E-07,  avg # of iterations =  2.0

     total cpu time spent up to now is        6.6 secs

     total energy              =    -147.45160247 Ry
     Harris-Foulkes estimate   =    -147.45164720 Ry
     estimated scf accuracy    <       0.00000856 Ry

     iteration #  6     ecut=    35.00 Ry     beta=0.30
     Davidson diagonalization with overlap
     ethr =  2.68E-08,  avg # of iterations =  2.1

     total cpu time spent up to now is        8.0 secs

     total energy              =    -147.45161004 Ry
     Harris-Foulkes estimate   =    -147.45160609 Ry
     estimated scf accuracy    <       0.00000576 Ry

     iteration #  7     ecut=    35.00 Ry     beta=0.30
     Davidson diagonalization with overlap
     ethr =  1.80E-08,  avg # of iterations =  2.0

     total cpu time spent up to now is        9.3 secs

     End of self-consistent calculation

          k = 0.1238 0.1263 0.1250 (  1080 PWs)   bands (ev):

    -7.7177  -1.2751  -1.1577  -1.0360   2.4737   2.6204   2.7665   5.8723
     5.9639   6.0584   7.2302   7.3801   7.5242  10.8663  12.5380  12.7301
    18.0153  18.2566  18.4880  19.6394

          k = 0.1238 0.1263 0.3750 (  1077 PWs)   bands (ev):

    -6.5790  -4.3476  -0.5043  -0.3437   2.1212   2.1318   4.8545   4.9366
     5.7754   6.8543   7.0721   8.0640   8.2017   8.4539  10.4097  11.2593
    18.4545  19.1155  20.6045  20.9990

          k = 0.1238 0.3788 0.1250 (  1081 PWs)   bands (ev):

    -6.5556  -4.2804  -0.4988  -0.4195   2.0964   2.0992   4.8394   4.8774
     5.7759   6.9177   7.0261   8.1528   8.1708   8.3197  10.3138  11.3721
    18.2263  18.9338  20.9006  21.0932

          k = 0.1238 0.3788 0.3750 (  1075 PWs)   bands (ev):

    -5.4385  -3.2808  -3.2380  -1.4231   1.6449   3.3771   3.4030   5.4137
     5.4847   6.9058   6.9105   8.8151   9.2411   9.2935   9.3547  11.5807
    20.3523  21.0700  21.3007  21.3533

          k = 0.3713 0.1263 0.1250 (  1077 PWs)   bands (ev):

    -6.6012  -4.4118  -0.4269  -0.3455   2.1556   2.1639   4.9101   4.9557
     5.7540   6.8857   6.9962   8.0023   8.2257   8.5745  10.5148  11.1340
    18.6713  19.2880  20.5134  20.7150

          k = 0.3713 0.1263 0.3750 (  1072 PWs)   bands (ev):

    -5.4826  -3.3605  -3.3195  -1.4906   1.7974   3.5088   3.5309   5.5814
     5.7018   7.1173   7.1262   8.9390   9.0391   9.0862   9.1271  11.3173
    19.8898  21.1815  21.3917  21.4055

          k = 0.3713 0.3788 0.1250 (  1074 PWs)   bands (ev):

    -5.4600  -3.3403  -3.2567  -1.4547   1.7185   3.4289   3.4775   5.5309
     5.5540   7.0109   7.0136   8.9211   9.0920   9.1652   9.2677  11.4488
    20.1262  21.0109  21.3439  21.4549

          k = 0.3713 0.3788 0.3750 (  1066 PWs)   bands (ev):

    -4.3807  -2.4826  -2.4528  -2.4220   0.7332   0.7606   0.7874   2.6326
     8.9786   9.1173   9.2890   9.6419   9.7883   9.9074  10.6128  10.9049
    20.7136  20.8838  21.0414  21.4592

     the Fermi energy is    14.4371 ev

!    total energy              =    -147.45161163 Ry
     Harris-Foulkes estimate   =    -147.45161080 Ry
     estimated scf accuracy    <       0.00000006 Ry

     total all-electron energy =      -609.564393 Ry

     The total energy is the sum of the following terms:

     one-electron contribution =      33.69246133 Ry
     hartree contribution      =       7.77144963 Ry
     xc contribution           =     -37.47028512 Ry
     ewald contribution        =    -102.14184203 Ry
     one-center paw contrib.   =     -49.30339545 Ry
     smearing contrib. (-TS)   =       0.00000000 Ry

     convergence has been achieved in   7 iterations

     Forces acting on atoms (Ry/au):

     atom    1 type  1   force =     0.00000000    0.00000000    0.00000000
     atom    2 type  1   force =     0.00000000    0.00000000    0.00000000
     atom    3 type  1   force =     0.00000000    0.00000000    0.00000000
     atom    4 type  1   force =     0.00000000    0.00000000    0.00000000
     atom    5 type  1   force =     0.00000150   -0.00000153   -0.00000364
     atom    6 type  1   force =    -0.00000150    0.00000153   -0.00000364
     atom    7 type  1   force =     0.00000150    0.00000153    0.00000364
     atom    8 type  1   force =    -0.00000150   -0.00000153    0.00000364

     Total force =     0.000008     Total SCF correction =     0.000063
     SCF correction compared to forces is large: reduce conv_thr to get better values


     entering subroutine stress ...

          total   stress  (Ry/bohr**3)                   (kbar)     P=  -47.10
  -0.00094416   0.00000000   0.00000000       -138.89      0.00      0.00
   0.00000000   0.00030038   0.00000000          0.00     44.19      0.00
   0.00000000   0.00000000  -0.00031671          0.00      0.00    -46.59


     Writing output data file template.save

     init_run     :      0.44s CPU      0.46s WALL (       1 calls)
     electrons    :      7.76s CPU      8.54s WALL (       1 calls)
     forces       :      0.55s CPU      0.61s WALL (       1 calls)
     stress       :      1.18s CPU      1.24s WALL (       1 calls)

     Called by init_run:
     wfcinit      :      0.10s CPU      0.10s WALL (       1 calls)
     potinit      :      0.16s CPU      0.17s WALL (       1 calls)

     Called by electrons:
     c_bands      :      4.33s CPU      4.74s WALL (       7 calls)
     sum_band     :      0.78s CPU      0.86s WALL (       7 calls)
     v_of_rho     :      0.17s CPU      0.18s WALL (       8 calls)
     newd         :      0.09s CPU      0.15s WALL (       8 calls)
     PAW_pot      :      2.44s CPU      2.66s WALL (       8 calls)
     mix_rho      :      0.02s CPU      0.02s WALL (       7 calls)

     Called by c_bands:
     init_us_2    :      0.04s CPU      0.06s WALL (     136 calls)
     cegterg      :      4.20s CPU      4.64s WALL (      56 calls)

     Called by sum_band:
     sum_band:bec :      0.00s CPU      0.00s WALL (      56 calls)
     addusdens    :      0.11s CPU      0.11s WALL (       7 calls)

     Called by *egterg:
     h_psi        :      2.78s CPU      3.03s WALL (     224 calls)
     s_psi        :      0.10s CPU      0.15s WALL (     224 calls)
     g_psi        :      0.01s CPU      0.01s WALL (     160 calls)
     cdiaghg      :      0.74s CPU      0.82s WALL (     216 calls)

     Called by h_psi:
     h_psi:pot    :      2.77s CPU      3.02s WALL (     224 calls)
     h_psi:calbec :      0.24s CPU      0.24s WALL (     224 calls)
     vloc_psi     :      2.39s CPU      2.61s WALL (     224 calls)
     add_vuspsi   :      0.14s CPU      0.17s WALL (     224 calls)

     General routines
     calbec       :      0.43s CPU      0.49s WALL (     320 calls)
     fft          :      0.16s CPU      0.17s WALL (     149 calls)
     ffts         :      0.02s CPU      0.02s WALL (      15 calls)
     fftw         :      2.69s CPU      2.95s WALL (    7638 calls)
     interpolate  :      0.04s CPU      0.03s WALL (      15 calls)
     davcio       :      0.00s CPU      0.00s WALL (       8 calls)

     Parallel routines
     fft_scatter  :      1.22s CPU      1.28s WALL (    7802 calls)

     PWSCF        :    10.29s CPU        11.35s WALL


   This run was terminated on:  12:50: 0   9Jun2017            

=------------------------------------------------------------------------------=
   JOB DONE.
=------------------------------------------------------------------------------=
