
     Program PWSCF v.6.0 (svn rev. 13079) starts on  9Jun2017 at 12:49:33 

     This program is part of the open-source Quantum ESPRESSO suite
     for quantum simulation of materials; please cite
         "P. Giannozzi et al., J. Phys.:Condens. Matter 21 395502 (2009);
          URL http://www.quantum-espresso.org", 
     in publications or presentations arising from this work. More details at
     http://www.quantum-espresso.org/quote

     Parallel version (MPI), running on     4 processors
     R & G space division:  proc/nbgrp/npool/nimage =       4
     Waiting for input...
     Reading input from standard input
Warning: card &IONS ignored
Warning: card ION_DYNAMICS='BFGS', ignored
Warning: card / ignored
Warning: card &CELL ignored
Warning: card CELL_DYNAMICS='BFGS', ignored
Warning: card PRESS = 0.0, ignored
Warning: card CELL_FACTOR = 2.0, ignored
Warning: card / ignored

     Current dimensions of program PWSCF are:
     Max number of different atomic species (ntypx) = 10
     Max number of k-points (npk) =  40000
     Max angular momentum in pseudopotentials (lmaxx) =  3
               file C.pbe-n-kjpaw_psl.1.0.0.UPF: wavefunction(s)  2S 2P renormalized

     Subspace diagonalization in iterative solution of the eigenvalue problem:
     a serial algorithm will be used

     Found symmetry operation: I + ( -0.5000 -0.5000  0.0000)
     This is a supercell, fractional translations are disabled

     Parallelization info
     --------------------
     sticks:   dense  smooth     PW     G-vecs:    dense   smooth      PW
     Min         181     125     36                 3680     2149     350
     Max         183     127     38                 3681     2150     351
     Sum         729     505    147                14723     8597    1401



     bravais-lattice index     =            0
     lattice parameter (alat)  =       6.7508  a.u.
     unit-cell volume          =     307.6597 (a.u.)^3
     number of atoms/cell      =            8
     number of atomic types    =            1
     number of electrons       =        32.00
     number of Kohn-Sham states=           20
     kinetic-energy cutoff     =      35.0000  Ry
     charge density cutoff     =     200.0000  Ry
     convergence threshold     =      1.0E-06
     mixing beta               =       0.3000
     number of iterations used =           10  TF        mixing
     Exchange-correlation      =  SLA  PW   PBX  PBC ( 1  4  3  4 0 0)

     celldm(1)=   6.750826  celldm(2)=   0.000000  celldm(3)=   0.000000
     celldm(4)=   0.000000  celldm(5)=   0.000000  celldm(6)=   0.000000

     crystal axes: (cart. coord. in units of alat)
               a(1) = (   1.004000   0.000000   0.000000 )  
               a(2) = (   0.000000   0.996000   0.000000 )  
               a(3) = (   0.000000   0.000000   1.000016 )  

     reciprocal axes: (cart. coord. in units 2 pi/alat)
               b(1) = (  0.996016  0.000000  0.000000 )  
               b(2) = (  0.000000  1.004016  0.000000 )  
               b(3) = (  0.000000  0.000000  0.999984 )  


     PseudoPot. # 1 for  C read from file:
     /home/ben/espresso/pp/C.pbe-n-kjpaw_psl.1.0.0.UPF
     MD5 check sum: 151efd6a948e5eaef53e53bb29d01b27
     Pseudo is Projector augmented-wave + core cor, Zval =  4.0
     Generated using "atomic" code by A. Dal Corso  v.5.1
     Shape of augmentation charge: PSQ
     Using radial grid of 1073 points,  4 beta functions with: 
                l(1) =   0
                l(2) =   0
                l(3) =   1
                l(4) =   1
     Q(r) pseudized with 0 coefficients 


     atomic species   valence    mass     pseudopotential
        C              4.00    12.00000      C( 1.00)

      4 Sym. Ops. (no inversion) found



   Cartesian axes

     site n.     atom                  positions (alat units)
         1           C   tau(   1) = (   0.0000000   0.0000000   0.0000000  )
         2           C   tau(   2) = (   0.5020000   0.4980000   0.0000000  )
         3           C   tau(   3) = (   0.5020000   0.0000000   0.5000080  )
         4           C   tau(   4) = (   0.0000000   0.4980000   0.5000080  )
         5           C   tau(   5) = (   0.2510000   0.2490000   0.2500040  )
         6           C   tau(   6) = (   0.7530000   0.7470000   0.2500040  )
         7           C   tau(   7) = (   0.2510000   0.7470000   0.7500120  )
         8           C   tau(   8) = (   0.7530000   0.2490000   0.7500120  )

     number of k points=     8  Marzari-Vanderbilt smearing, width (Ry)=  0.0200
                       cart. coord. in units 2pi/alat
        k(    1) = (   0.1245020   0.1255020   0.1249980), wk =   0.2500000
        k(    2) = (   0.1245020   0.1255020   0.3749940), wk =   0.2500000
        k(    3) = (   0.1245020   0.3765060   0.1249980), wk =   0.2500000
        k(    4) = (   0.1245020   0.3765060   0.3749940), wk =   0.2500000
        k(    5) = (   0.3735060   0.1255020   0.1249980), wk =   0.2500000
        k(    6) = (   0.3735060   0.1255020   0.3749940), wk =   0.2500000
        k(    7) = (   0.3735060   0.3765060   0.1249980), wk =   0.2500000
        k(    8) = (   0.3735060   0.3765060   0.3749940), wk =   0.2500000

     Dense  grid:    14723 G-vectors     FFT dimensions: (  32,  32,  32)

     Smooth grid:     8597 G-vectors     FFT dimensions: (  25,  25,  25)

     Estimated max dynamical RAM per process >       4.12Mb

     Estimated total allocated dynamical RAM >      16.49Mb

     Check: negative/imaginary core charge=   -0.000075    0.000000

     Initial potential from superposition of free atoms

     starting charge   31.99967, renormalised to   32.00000
     Starting wfc are   32 randomized atomic wfcs
     Checking if some PAW data can be deallocated... 

     total cpu time spent up to now is        2.5 secs

     per-process dynamical memory:    16.8 Mb

     Self-consistent Calculation

     iteration #  1     ecut=    35.00 Ry     beta=0.30
     Davidson diagonalization with overlap
     ethr =  1.00E-02,  avg # of iterations =  2.9

     total cpu time spent up to now is        3.7 secs

     total energy              =    -147.55012353 Ry
     Harris-Foulkes estimate   =    -147.63126722 Ry
     estimated scf accuracy    <       0.46520774 Ry

     iteration #  2     ecut=    35.00 Ry     beta=0.30
     Davidson diagonalization with overlap
     ethr =  1.45E-03,  avg # of iterations =  1.4

     total cpu time spent up to now is        4.7 secs

     total energy              =    -147.42497361 Ry
     Harris-Foulkes estimate   =    -147.55310607 Ry
     estimated scf accuracy    <       0.27433897 Ry

     iteration #  3     ecut=    35.00 Ry     beta=0.30
     Davidson diagonalization with overlap
     ethr =  8.57E-04,  avg # of iterations =  2.6

     total cpu time spent up to now is        5.1 secs

     total energy              =    -147.45205561 Ry
     Harris-Foulkes estimate   =    -147.44893493 Ry
     estimated scf accuracy    <       0.00293113 Ry

     iteration #  4     ecut=    35.00 Ry     beta=0.30
     Davidson diagonalization with overlap
     ethr =  9.16E-06,  avg # of iterations =  7.4

     total cpu time spent up to now is        5.7 secs

     total energy              =    -147.45317118 Ry
     Harris-Foulkes estimate   =    -147.45292213 Ry
     estimated scf accuracy    <       0.00020400 Ry

     iteration #  5     ecut=    35.00 Ry     beta=0.30
     Davidson diagonalization with overlap
     ethr =  6.38E-07,  avg # of iterations =  2.0

     total cpu time spent up to now is        6.1 secs

     total energy              =    -147.45316947 Ry
     Harris-Foulkes estimate   =    -147.45321367 Ry
     estimated scf accuracy    <       0.00000832 Ry

     iteration #  6     ecut=    35.00 Ry     beta=0.30
     Davidson diagonalization with overlap
     ethr =  2.60E-08,  avg # of iterations =  2.2

     total cpu time spent up to now is        6.4 secs

     total energy              =    -147.45317680 Ry
     Harris-Foulkes estimate   =    -147.45317315 Ry
     estimated scf accuracy    <       0.00000593 Ry

     iteration #  7     ecut=    35.00 Ry     beta=0.30
     Davidson diagonalization with overlap
     ethr =  1.85E-08,  avg # of iterations =  2.0

     total cpu time spent up to now is        6.7 secs

     End of self-consistent calculation

          k = 0.1245 0.1255 0.1250 (  1082 PWs)   bands (ev):

    -7.7181  -1.2050  -1.1576  -1.1095   2.5616   2.6202   2.6787   5.9240
     5.9620   5.9993   7.3162   7.3755   7.4334  10.8690  12.5932  12.6701
    18.1563  18.2520  18.3456  19.6965

          k = 0.1245 0.1255 0.3750 (  1075 PWs)   bands (ev):

    -6.5793  -4.3477  -0.4558  -0.3914   2.1261   2.1303   4.8771   4.9111
     5.7734   6.9121   6.9990   8.0689   8.2008   8.4431  10.4139  11.2520
    18.4497  19.1122  20.7239  20.8814

          k = 0.1245 0.3765 0.1250 (  1079 PWs)   bands (ev):

    -6.5701  -4.3212  -0.4540  -0.4220   2.1152   2.1169   4.8708   4.8876
     5.7760   6.9390   6.9822   8.1020   8.1889   8.3909  10.3730  11.2984
    18.3598  19.0396  20.8404  20.9186

          k = 0.1245 0.3765 0.3750 (  1078 PWs)   bands (ev):

    -5.4523  -3.2928  -3.2759  -1.4435   1.6881   3.4223   3.4323   5.4977
     5.5124   6.9724   6.9729   8.8800   9.1499   9.2434   9.2655  11.5014
    20.2129  21.1714  21.2616  21.3791

          k = 0.3735 0.1255 0.1250 (  1074 PWs)   bands (ev):

    -6.5883  -4.3737  -0.4249  -0.3926   2.1397   2.1422   4.9003   4.9181
     5.7673   6.9265   6.9702   8.0405   8.2111   8.4929  10.4559  11.2030
    18.5381  19.1825  20.6874  20.7667

          k = 0.3735 0.1255 0.3750 (  1073 PWs)   bands (ev):

    -5.4700  -3.3250  -3.3084  -1.4706   1.7489   3.4749   3.4842   5.5508
     5.6127   7.0577   7.0594   8.9695   9.0288   9.1582   9.1771  11.3968
    20.0274  21.2137  21.3010  21.4015

          k = 0.3735 0.3765 0.1250 (  1074 PWs)   bands (ev):

    -5.4611  -3.3169  -3.2835  -1.4567   1.7182   3.4435   3.4627   5.5309
     5.5548   7.0148   7.0160   8.9236   9.0906   9.1908   9.2320  11.4492
    20.1212  21.1478  21.3254  21.3836

          k = 0.3735 0.3765 0.3750 (  1064 PWs)   bands (ev):

    -4.3815  -2.4656  -2.4535  -2.4414   0.7483   0.7593   0.7700   2.6311
     9.0746   9.1352   9.2013   9.7129   9.7699   9.8215  10.6998  10.8156
    20.8203  20.8872  20.9519  21.6064

     the Fermi energy is    14.5474 ev

!    total energy              =    -147.45317832 Ry
     Harris-Foulkes estimate   =    -147.45317758 Ry
     estimated scf accuracy    <       0.00000006 Ry

     total all-electron energy =      -609.565960 Ry

     The total energy is the sum of the following terms:

     one-electron contribution =      33.68483697 Ry
     hartree contribution      =       7.77430614 Ry
     xc contribution           =     -37.47098751 Ry
     ewald contribution        =    -102.13790839 Ry
     one-center paw contrib.   =     -49.30342553 Ry
     smearing contrib. (-TS)   =       0.00000000 Ry

     convergence has been achieved in   7 iterations

     Forces acting on atoms (Ry/au):

     atom    1 type  1   force =     0.00000000    0.00000000    0.00000000
     atom    2 type  1   force =     0.00000000    0.00000000    0.00000000
     atom    3 type  1   force =     0.00000000    0.00000000    0.00000000
     atom    4 type  1   force =     0.00000000    0.00000000    0.00000000
     atom    5 type  1   force =     0.00000134   -0.00000143   -0.00000475
     atom    6 type  1   force =    -0.00000134    0.00000143   -0.00000475
     atom    7 type  1   force =     0.00000134    0.00000143    0.00000475
     atom    8 type  1   force =    -0.00000134   -0.00000143    0.00000475

     Total force =     0.000010     Total SCF correction =     0.000078
     SCF correction compared to forces is large: reduce conv_thr to get better values


     entering subroutine stress ...

          total   stress  (Ry/bohr**3)                   (kbar)     P=  -47.38
  -0.00057348   0.00000000   0.00000000        -84.36      0.00      0.00
   0.00000000  -0.00007241   0.00000000          0.00    -10.65      0.00
   0.00000000   0.00000000  -0.00032032          0.00      0.00    -47.12


     Writing output data file template.save

     init_run     :      1.38s CPU      1.55s WALL (       1 calls)
     electrons    :      4.13s CPU      4.29s WALL (       1 calls)
     forces       :      0.18s CPU      0.18s WALL (       1 calls)
     stress       :      0.32s CPU      0.32s WALL (       1 calls)

     Called by init_run:
     wfcinit      :      0.31s CPU      0.33s WALL (       1 calls)
     potinit      :      0.50s CPU      0.62s WALL (       1 calls)

     Called by electrons:
     c_bands      :      2.26s CPU      2.33s WALL (       7 calls)
     sum_band     :      0.37s CPU      0.43s WALL (       7 calls)
     v_of_rho     :      0.11s CPU      0.12s WALL (       8 calls)
     newd         :      0.08s CPU      0.08s WALL (       8 calls)
     PAW_pot      :      1.69s CPU      1.75s WALL (       8 calls)
     mix_rho      :      0.01s CPU      0.01s WALL (       7 calls)

     Called by c_bands:
     init_us_2    :      0.02s CPU      0.03s WALL (     136 calls)
     cegterg      :      2.19s CPU      2.26s WALL (      56 calls)

     Called by sum_band:
     sum_band:bec :      0.00s CPU      0.00s WALL (      56 calls)
     addusdens    :      0.06s CPU      0.06s WALL (       7 calls)

     Called by *egterg:
     h_psi        :      1.72s CPU      1.76s WALL (     228 calls)
     s_psi        :      0.10s CPU      0.11s WALL (     228 calls)
     g_psi        :      0.01s CPU      0.01s WALL (     164 calls)
     cdiaghg      :      0.33s CPU      0.35s WALL (     220 calls)

     Called by h_psi:
     h_psi:pot    :      1.71s CPU      1.75s WALL (     228 calls)
     h_psi:calbec :      0.12s CPU      0.13s WALL (     228 calls)
     vloc_psi     :      1.48s CPU      1.49s WALL (     228 calls)
     add_vuspsi   :      0.10s CPU      0.12s WALL (     228 calls)

     General routines
     calbec       :      0.18s CPU      0.20s WALL (     324 calls)
     fft          :      0.06s CPU      0.08s WALL (     149 calls)
     ffts         :      0.00s CPU      0.01s WALL (      15 calls)
     fftw         :      1.57s CPU      1.61s WALL (    7642 calls)
     interpolate  :      0.00s CPU      0.02s WALL (      15 calls)
     davcio       :      0.00s CPU      0.00s WALL (       8 calls)

     Parallel routines
     fft_scatter  :      0.47s CPU      0.50s WALL (    7806 calls)

     PWSCF        :     6.74s CPU         7.30s WALL


   This run was terminated on:  12:49:40   9Jun2017            

=------------------------------------------------------------------------------=
   JOB DONE.
=------------------------------------------------------------------------------=
