
     Program PWSCF v.6.0 (svn rev. 13079) starts on  9Jun2017 at 12:50:11 

     This program is part of the open-source Quantum ESPRESSO suite
     for quantum simulation of materials; please cite
         "P. Giannozzi et al., J. Phys.:Condens. Matter 21 395502 (2009);
          URL http://www.quantum-espresso.org", 
     in publications or presentations arising from this work. More details at
     http://www.quantum-espresso.org/quote

     Parallel version (MPI), running on     4 processors
     R & G space division:  proc/nbgrp/npool/nimage =       4
     Waiting for input...
     Reading input from standard input
Warning: card &IONS ignored
Warning: card ION_DYNAMICS='BFGS', ignored
Warning: card / ignored
Warning: card &CELL ignored
Warning: card CELL_DYNAMICS='BFGS', ignored
Warning: card PRESS = 0.0, ignored
Warning: card CELL_FACTOR = 2.0, ignored
Warning: card / ignored

     Current dimensions of program PWSCF are:
     Max number of different atomic species (ntypx) = 10
     Max number of k-points (npk) =  40000
     Max angular momentum in pseudopotentials (lmaxx) =  3
               file C.pbe-n-kjpaw_psl.1.0.0.UPF: wavefunction(s)  2S 2P renormalized

     Subspace diagonalization in iterative solution of the eigenvalue problem:
     a serial algorithm will be used

     Found symmetry operation: I + ( -0.5000 -0.5000  0.0000)
     This is a supercell, fractional translations are disabled

     Parallelization info
     --------------------
     sticks:   dense  smooth     PW     G-vecs:    dense   smooth      PW
     Min         181     125     37                 3679     2141     350
     Max         182     126     38                 3682     2144     351
     Sum         727     501    151                14725     8569    1401



     bravais-lattice index     =            0
     lattice parameter (alat)  =       6.7508  a.u.
     unit-cell volume          =     307.6597 (a.u.)^3
     number of atoms/cell      =            8
     number of atomic types    =            1
     number of electrons       =        32.00
     number of Kohn-Sham states=           20
     kinetic-energy cutoff     =      35.0000  Ry
     charge density cutoff     =     200.0000  Ry
     convergence threshold     =      1.0E-06
     mixing beta               =       0.3000
     number of iterations used =           10  TF        mixing
     Exchange-correlation      =  SLA  PW   PBX  PBC ( 1  4  3  4 0 0)

     celldm(1)=   6.750826  celldm(2)=   0.000000  celldm(3)=   0.000000
     celldm(4)=   0.000000  celldm(5)=   0.000000  celldm(6)=   0.000000

     crystal axes: (cart. coord. in units of alat)
               a(1) = (   1.016000   0.000000   0.000000 )  
               a(2) = (   0.000000   0.984000   0.000000 )  
               a(3) = (   0.000000   0.000000   1.000256 )  

     reciprocal axes: (cart. coord. in units 2 pi/alat)
               b(1) = (  0.984252  0.000000  0.000000 )  
               b(2) = (  0.000000  1.016260  0.000000 )  
               b(3) = (  0.000000  0.000000  0.999744 )  


     PseudoPot. # 1 for  C read from file:
     /home/ben/espresso/pp/C.pbe-n-kjpaw_psl.1.0.0.UPF
     MD5 check sum: 151efd6a948e5eaef53e53bb29d01b27
     Pseudo is Projector augmented-wave + core cor, Zval =  4.0
     Generated using "atomic" code by A. Dal Corso  v.5.1
     Shape of augmentation charge: PSQ
     Using radial grid of 1073 points,  4 beta functions with: 
                l(1) =   0
                l(2) =   0
                l(3) =   1
                l(4) =   1
     Q(r) pseudized with 0 coefficients 


     atomic species   valence    mass     pseudopotential
        C              4.00    12.00000      C( 1.00)

      4 Sym. Ops. (no inversion) found



   Cartesian axes

     site n.     atom                  positions (alat units)
         1           C   tau(   1) = (   0.0000000   0.0000000   0.0000000  )
         2           C   tau(   2) = (   0.5080000   0.4920000   0.0000000  )
         3           C   tau(   3) = (   0.5080000   0.0000000   0.5001280  )
         4           C   tau(   4) = (   0.0000000   0.4920000   0.5001280  )
         5           C   tau(   5) = (   0.2540000   0.2460000   0.2500640  )
         6           C   tau(   6) = (   0.7620000   0.7380000   0.2500640  )
         7           C   tau(   7) = (   0.2540000   0.7380000   0.7501920  )
         8           C   tau(   8) = (   0.7620000   0.2460000   0.7501920  )

     number of k points=     8  Marzari-Vanderbilt smearing, width (Ry)=  0.0200
                       cart. coord. in units 2pi/alat
        k(    1) = (   0.1230315   0.1270325   0.1249680), wk =   0.2500000
        k(    2) = (   0.1230315   0.1270325   0.3749040), wk =   0.2500000
        k(    3) = (   0.1230315   0.3810976   0.1249680), wk =   0.2500000
        k(    4) = (   0.1230315   0.3810976   0.3749040), wk =   0.2500000
        k(    5) = (   0.3690945   0.1270325   0.1249680), wk =   0.2500000
        k(    6) = (   0.3690945   0.1270325   0.3749040), wk =   0.2500000
        k(    7) = (   0.3690945   0.3810976   0.1249680), wk =   0.2500000
        k(    8) = (   0.3690945   0.3810976   0.3749040), wk =   0.2500000

     Dense  grid:    14725 G-vectors     FFT dimensions: (  32,  30,  32)

     Smooth grid:     8569 G-vectors     FFT dimensions: (  25,  25,  25)

     Estimated max dynamical RAM per process >       4.09Mb

     Estimated total allocated dynamical RAM >      16.35Mb

     Check: negative/imaginary core charge=   -0.000076    0.000000

     Initial potential from superposition of free atoms

     starting charge   31.99967, renormalised to   32.00000
     Starting wfc are   32 randomized atomic wfcs
     Checking if some PAW data can be deallocated... 

     total cpu time spent up to now is        0.8 secs

     per-process dynamical memory:    16.9 Mb

     Self-consistent Calculation

     iteration #  1     ecut=    35.00 Ry     beta=0.30
     Davidson diagonalization with overlap
     ethr =  1.00E-02,  avg # of iterations =  2.6

     total cpu time spent up to now is        1.2 secs

     total energy              =    -147.54558975 Ry
     Harris-Foulkes estimate   =    -147.62659700 Ry
     estimated scf accuracy    <       0.46461505 Ry

     iteration #  2     ecut=    35.00 Ry     beta=0.30
     Davidson diagonalization with overlap
     ethr =  1.45E-03,  avg # of iterations =  1.4

     total cpu time spent up to now is        1.5 secs

     total energy              =    -147.42075767 Ry
     Harris-Foulkes estimate   =    -147.54860087 Ry
     estimated scf accuracy    <       0.27389073 Ry

     iteration #  3     ecut=    35.00 Ry     beta=0.30
     Davidson diagonalization with overlap
     ethr =  8.56E-04,  avg # of iterations =  1.9

     total cpu time spent up to now is        1.8 secs

     total energy              =    -147.44771648 Ry
     Harris-Foulkes estimate   =    -147.44460842 Ry
     estimated scf accuracy    <       0.00292436 Ry

     iteration #  4     ecut=    35.00 Ry     beta=0.30
     Davidson diagonalization with overlap
     ethr =  9.14E-06,  avg # of iterations =  8.5

     total cpu time spent up to now is        2.4 secs

     total energy              =    -147.44886736 Ry
     Harris-Foulkes estimate   =    -147.44861576 Ry
     estimated scf accuracy    <       0.00023239 Ry

     iteration #  5     ecut=    35.00 Ry     beta=0.30
     Davidson diagonalization with overlap
     ethr =  7.26E-07,  avg # of iterations =  2.0

     total cpu time spent up to now is        2.8 secs

     total energy              =    -147.44886898 Ry
     Harris-Foulkes estimate   =    -147.44891313 Ry
     estimated scf accuracy    <       0.00000843 Ry

     iteration #  6     ecut=    35.00 Ry     beta=0.30
     Davidson diagonalization with overlap
     ethr =  2.63E-08,  avg # of iterations =  2.1

     total cpu time spent up to now is        3.2 secs

     total energy              =    -147.44887650 Ry
     Harris-Foulkes estimate   =    -147.44887262 Ry
     estimated scf accuracy    <       0.00000605 Ry

     iteration #  7     ecut=    35.00 Ry     beta=0.30
     Davidson diagonalization with overlap
     ethr =  1.89E-08,  avg # of iterations =  2.0

     total cpu time spent up to now is        3.5 secs

     End of self-consistent calculation

          k = 0.1230 0.1270 0.1250 (  1079 PWs)   bands (ev):

    -7.7170  -1.3436  -1.1585  -0.9609   2.3858   2.6205   2.8539   5.8231
     5.9689   6.1203   7.1460   7.3867   7.6144  10.8614  12.4854  12.7922
    17.8747  18.2653  18.6308  19.5704

          k = 0.1230 0.1270 0.3749 (  1081 PWs)   bands (ev):

    -6.5786  -4.3477  -0.5530  -0.2968   2.1156   2.1312   4.8347   4.9610
     5.7792   6.8048   7.1510   8.0554   8.2039   8.4703  10.4023  11.2729
    18.4628  19.1216  20.4841  21.1156

          k = 0.1230 0.3811 0.1250 (  1083 PWs)   bands (ev):

    -6.5406  -4.2387  -0.5429  -0.4171   2.0786   2.0802   4.8107   4.8671
     5.7701   6.8998   7.0710   8.1528   8.1858   8.2745  10.2559  11.4502
    18.0931  18.8281  20.9639  21.2687

          k = 0.1230 0.3811 0.3749 (  1075 PWs)   bands (ev):

    -5.4242  -3.2685  -3.1994  -1.4027   1.6037   3.3325   3.3757   5.3308
     5.4589   6.8369   6.8506   8.7514   9.3333   9.3440   9.4468  11.6608
    20.4915  20.9622  21.3207  21.3429

          k = 0.3691 0.1270 0.1250 (  1080 PWs)   bands (ev):

    -6.6136  -4.4491  -0.4288  -0.2976   2.1707   2.1867   4.9198   4.9956
     5.7333   6.8473   7.0258   7.9714   8.2394   8.6557  10.5715  11.0727
    18.8054  19.3935  20.3409  20.6679

          k = 0.3691 0.1270 0.3749 (  1072 PWs)   bands (ev):

    -5.4949  -3.3953  -3.3305  -1.5108   1.8475   3.5449   3.5782   5.6131
     5.7918   7.1722   7.1952   8.8495   9.0230   9.0779   9.1067  11.2415
    19.7512  21.1520  21.3807  21.5798

          k = 0.3691 0.3811 0.1250 (  1074 PWs)   bands (ev):

    -5.4581  -3.3625  -3.2287  -1.4512   1.7188   3.4141   3.4916   5.5315
     5.5522   7.0045   7.0083   8.9169   9.0929   9.1444   9.3076  11.4527
    20.1346  20.8706  21.2773  21.5808

          k = 0.3691 0.3811 0.3749 (  1070 PWs)   bands (ev):

    -4.3791  -2.4986  -2.4513  -2.4017   0.7192   0.7630   0.8054   2.6351
     8.8807   9.0862   9.3493   9.5985   9.8218   9.9953  10.5273  10.9917
    20.6006  20.8773  21.1216  21.2902

     the Fermi energy is    14.5284 ev

!    total energy              =    -147.44887820 Ry
     Harris-Foulkes estimate   =    -147.44887731 Ry
     estimated scf accuracy    <       0.00000006 Ry

     total all-electron energy =      -609.561660 Ry

     The total energy is the sum of the following terms:

     one-electron contribution =      33.70661968 Ry
     hartree contribution      =       7.76612085 Ry
     xc contribution           =     -37.46912010 Ry
     ewald contribution        =    -102.14914573 Ry
     one-center paw contrib.   =     -49.30335290 Ry
     smearing contrib. (-TS)   =       0.00000000 Ry

     convergence has been achieved in   7 iterations

     Forces acting on atoms (Ry/au):

     atom    1 type  1   force =     0.00000000    0.00000000    0.00000000
     atom    2 type  1   force =     0.00000000    0.00000000    0.00000000
     atom    3 type  1   force =     0.00000000    0.00000000    0.00000000
     atom    4 type  1   force =     0.00000000    0.00000000    0.00000000
     atom    5 type  1   force =     0.00000229   -0.00000170   -0.00000514
     atom    6 type  1   force =    -0.00000229    0.00000170   -0.00000514
     atom    7 type  1   force =     0.00000229    0.00000170    0.00000514
     atom    8 type  1   force =    -0.00000229   -0.00000170    0.00000514

     Total force =     0.000012     Total SCF correction =     0.000089
     SCF correction compared to forces is large: reduce conv_thr to get better values


     entering subroutine stress ...

          total   stress  (Ry/bohr**3)                   (kbar)     P=  -46.28
  -0.00132396   0.00000000   0.00000000       -194.76      0.00      0.00
   0.00000000   0.00067942   0.00000000          0.00     99.95      0.00
   0.00000000   0.00000000  -0.00029917          0.00      0.00    -44.01


     Writing output data file template.save

     init_run     :      0.50s CPU      0.51s WALL (       1 calls)
     electrons    :      2.60s CPU      2.68s WALL (       1 calls)
     forces       :      0.17s CPU      0.17s WALL (       1 calls)
     stress       :      0.32s CPU      0.32s WALL (       1 calls)

     Called by init_run:
     wfcinit      :      0.10s CPU      0.10s WALL (       1 calls)
     potinit      :      0.19s CPU      0.20s WALL (       1 calls)

     Called by electrons:
     c_bands      :      1.43s CPU      1.48s WALL (       7 calls)
     sum_band     :      0.23s CPU      0.24s WALL (       7 calls)
     v_of_rho     :      0.07s CPU      0.07s WALL (       8 calls)
     newd         :      0.04s CPU      0.05s WALL (       8 calls)
     PAW_pot      :      0.96s CPU      0.97s WALL (       8 calls)
     mix_rho      :      0.01s CPU      0.01s WALL (       7 calls)

     Called by c_bands:
     init_us_2    :      0.02s CPU      0.02s WALL (     136 calls)
     cegterg      :      1.39s CPU      1.45s WALL (      56 calls)

     Called by sum_band:
     sum_band:bec :      0.00s CPU      0.00s WALL (      56 calls)
     addusdens    :      0.04s CPU      0.04s WALL (       7 calls)

     Called by *egterg:
     h_psi        :      0.94s CPU      1.01s WALL (     228 calls)
     s_psi        :      0.06s CPU      0.07s WALL (     228 calls)
     g_psi        :      0.02s CPU      0.01s WALL (     164 calls)
     cdiaghg      :      0.32s CPU      0.26s WALL (     220 calls)

     Called by h_psi:
     h_psi:pot    :      0.93s CPU      1.00s WALL (     228 calls)
     h_psi:calbec :      0.10s CPU      0.08s WALL (     228 calls)
     vloc_psi     :      0.79s CPU      0.85s WALL (     228 calls)
     add_vuspsi   :      0.04s CPU      0.07s WALL (     228 calls)

     General routines
     calbec       :      0.14s CPU      0.12s WALL (     324 calls)
     fft          :      0.04s CPU      0.07s WALL (     149 calls)
     ffts         :      0.01s CPU      0.00s WALL (      15 calls)
     fftw         :      0.85s CPU      0.91s WALL (    7636 calls)
     interpolate  :      0.01s CPU      0.01s WALL (      15 calls)
     davcio       :      0.00s CPU      0.00s WALL (       8 calls)

     Parallel routines
     fft_scatter  :      0.22s CPU      0.23s WALL (    7800 calls)

     PWSCF        :     3.86s CPU         4.06s WALL


   This run was terminated on:  12:50:15   9Jun2017            

=------------------------------------------------------------------------------=
   JOB DONE.
=------------------------------------------------------------------------------=
