
     Program PWSCF v.6.0 (svn rev. 13079) starts on  9Jun2017 at 12:50: 1 

     This program is part of the open-source Quantum ESPRESSO suite
     for quantum simulation of materials; please cite
         "P. Giannozzi et al., J. Phys.:Condens. Matter 21 395502 (2009);
          URL http://www.quantum-espresso.org", 
     in publications or presentations arising from this work. More details at
     http://www.quantum-espresso.org/quote

     Parallel version (MPI), running on     4 processors
     R & G space division:  proc/nbgrp/npool/nimage =       4
     Waiting for input...
     Reading input from standard input
Warning: card &IONS ignored
Warning: card ION_DYNAMICS='BFGS', ignored
Warning: card / ignored
Warning: card &CELL ignored
Warning: card CELL_DYNAMICS='BFGS', ignored
Warning: card PRESS = 0.0, ignored
Warning: card CELL_FACTOR = 2.0, ignored
Warning: card / ignored

     Current dimensions of program PWSCF are:
     Max number of different atomic species (ntypx) = 10
     Max number of k-points (npk) =  40000
     Max angular momentum in pseudopotentials (lmaxx) =  3
               file C.pbe-n-kjpaw_psl.1.0.0.UPF: wavefunction(s)  2S 2P renormalized

     Subspace diagonalization in iterative solution of the eigenvalue problem:
     a serial algorithm will be used

     Found symmetry operation: I + ( -0.5000 -0.5000  0.0000)
     This is a supercell, fractional translations are disabled

     Parallelization info
     --------------------
     sticks:   dense  smooth     PW     G-vecs:    dense   smooth      PW
     Min         181     125     37                 3682     2143     350
     Max         183     126     38                 3683     2144     351
     Sum         729     501    151                14731     8573    1401



     bravais-lattice index     =            0
     lattice parameter (alat)  =       6.7508  a.u.
     unit-cell volume          =     307.6597 (a.u.)^3
     number of atoms/cell      =            8
     number of atomic types    =            1
     number of electrons       =        32.00
     number of Kohn-Sham states=           20
     kinetic-energy cutoff     =      35.0000  Ry
     charge density cutoff     =     200.0000  Ry
     convergence threshold     =      1.0E-06
     mixing beta               =       0.3000
     number of iterations used =           10  TF        mixing
     Exchange-correlation      =  SLA  PW   PBX  PBC ( 1  4  3  4 0 0)

     celldm(1)=   6.750826  celldm(2)=   0.000000  celldm(3)=   0.000000
     celldm(4)=   0.000000  celldm(5)=   0.000000  celldm(6)=   0.000000

     crystal axes: (cart. coord. in units of alat)
               a(1) = (   1.012000   0.000000   0.000000 )  
               a(2) = (   0.000000   0.988000   0.000000 )  
               a(3) = (   0.000000   0.000000   1.000144 )  

     reciprocal axes: (cart. coord. in units 2 pi/alat)
               b(1) = (  0.988142  0.000000  0.000000 )  
               b(2) = (  0.000000  1.012146  0.000000 )  
               b(3) = (  0.000000  0.000000  0.999856 )  


     PseudoPot. # 1 for  C read from file:
     /home/ben/espresso/pp/C.pbe-n-kjpaw_psl.1.0.0.UPF
     MD5 check sum: 151efd6a948e5eaef53e53bb29d01b27
     Pseudo is Projector augmented-wave + core cor, Zval =  4.0
     Generated using "atomic" code by A. Dal Corso  v.5.1
     Shape of augmentation charge: PSQ
     Using radial grid of 1073 points,  4 beta functions with: 
                l(1) =   0
                l(2) =   0
                l(3) =   1
                l(4) =   1
     Q(r) pseudized with 0 coefficients 


     atomic species   valence    mass     pseudopotential
        C              4.00    12.00000      C( 1.00)

      4 Sym. Ops. (no inversion) found



   Cartesian axes

     site n.     atom                  positions (alat units)
         1           C   tau(   1) = (   0.0000000   0.0000000   0.0000000  )
         2           C   tau(   2) = (   0.5060000   0.4940000   0.0000000  )
         3           C   tau(   3) = (   0.5060000   0.0000000   0.5000720  )
         4           C   tau(   4) = (   0.0000000   0.4940000   0.5000720  )
         5           C   tau(   5) = (   0.2530000   0.2470000   0.2500360  )
         6           C   tau(   6) = (   0.7590000   0.7410000   0.2500360  )
         7           C   tau(   7) = (   0.2530000   0.7410000   0.7501080  )
         8           C   tau(   8) = (   0.7590000   0.2470000   0.7501080  )

     number of k points=     8  Marzari-Vanderbilt smearing, width (Ry)=  0.0200
                       cart. coord. in units 2pi/alat
        k(    1) = (   0.1235178   0.1265182   0.1249820), wk =   0.2500000
        k(    2) = (   0.1235178   0.1265182   0.3749460), wk =   0.2500000
        k(    3) = (   0.1235178   0.3795547   0.1249820), wk =   0.2500000
        k(    4) = (   0.1235178   0.3795547   0.3749460), wk =   0.2500000
        k(    5) = (   0.3705534   0.1265182   0.1249820), wk =   0.2500000
        k(    6) = (   0.3705534   0.1265182   0.3749460), wk =   0.2500000
        k(    7) = (   0.3705534   0.3795547   0.1249820), wk =   0.2500000
        k(    8) = (   0.3705534   0.3795547   0.3749460), wk =   0.2500000

     Dense  grid:    14731 G-vectors     FFT dimensions: (  32,  32,  32)

     Smooth grid:     8573 G-vectors     FFT dimensions: (  25,  25,  25)

     Estimated max dynamical RAM per process >       4.12Mb

     Estimated total allocated dynamical RAM >      16.50Mb

     Check: negative/imaginary core charge=   -0.000076    0.000000

     Initial potential from superposition of free atoms

     starting charge   31.99967, renormalised to   32.00000
     Starting wfc are   32 randomized atomic wfcs
     Checking if some PAW data can be deallocated... 

     total cpu time spent up to now is        2.3 secs

     per-process dynamical memory:    16.8 Mb

     Self-consistent Calculation

     iteration #  1     ecut=    35.00 Ry     beta=0.30
     Davidson diagonalization with overlap
     ethr =  1.00E-02,  avg # of iterations =  2.6

     total cpu time spent up to now is        3.3 secs

     total energy              =    -147.54759015 Ry
     Harris-Foulkes estimate   =    -147.62868758 Ry
     estimated scf accuracy    <       0.46497795 Ry

     iteration #  2     ecut=    35.00 Ry     beta=0.30
     Davidson diagonalization with overlap
     ethr =  1.45E-03,  avg # of iterations =  1.0

     total cpu time spent up to now is        3.6 secs

     total energy              =    -147.42263232 Ry
     Harris-Foulkes estimate   =    -147.55059986 Ry
     estimated scf accuracy    <       0.27410054 Ry

     iteration #  3     ecut=    35.00 Ry     beta=0.30
     Davidson diagonalization with overlap
     ethr =  8.57E-04,  avg # of iterations =  2.4

     total cpu time spent up to now is        3.9 secs

     total energy              =    -147.44963795 Ry
     Harris-Foulkes estimate   =    -147.44653039 Ry
     estimated scf accuracy    <       0.00292740 Ry

     iteration #  4     ecut=    35.00 Ry     beta=0.30
     Davidson diagonalization with overlap
     ethr =  9.15E-06,  avg # of iterations =  8.8

     total cpu time spent up to now is        4.4 secs

     total energy              =    -147.45077269 Ry
     Harris-Foulkes estimate   =    -147.45051421 Ry
     estimated scf accuracy    <       0.00022638 Ry

     iteration #  5     ecut=    35.00 Ry     beta=0.30
     Davidson diagonalization with overlap
     ethr =  7.07E-07,  avg # of iterations =  2.2

     total cpu time spent up to now is        4.8 secs

     total energy              =    -147.45077397 Ry
     Harris-Foulkes estimate   =    -147.45081875 Ry
     estimated scf accuracy    <       0.00000856 Ry

     iteration #  6     ecut=    35.00 Ry     beta=0.30
     Davidson diagonalization with overlap
     ethr =  2.67E-08,  avg # of iterations =  2.1

     total cpu time spent up to now is        5.1 secs

     total energy              =    -147.45078150 Ry
     Harris-Foulkes estimate   =    -147.45077754 Ry
     estimated scf accuracy    <       0.00000550 Ry

     iteration #  7     ecut=    35.00 Ry     beta=0.30
     Davidson diagonalization with overlap
     ethr =  1.72E-08,  avg # of iterations =  2.0

     total cpu time spent up to now is        5.5 secs

     End of self-consistent calculation

          k = 0.1235 0.1265 0.1250 (  1079 PWs)   bands (ev):

    -7.7174  -1.2981  -1.1581  -1.0111   2.4444   2.6205   2.7962   5.8558
     5.9652   6.0787   7.2019   7.3819   7.5541  10.8649  12.5202  12.7506
    17.9688  18.2589  18.5356  19.6175

          k = 0.1235 0.1265 0.3749 (  1079 PWs)   bands (ev):

    -6.5788  -4.3476  -0.5205  -0.3280   2.1194   2.1319   4.8475   4.9450
     5.7765   6.8371   7.0978   8.0614   8.2018   8.4586  10.4073  11.2631
    18.4568  19.1172  20.5645  21.0379

          k = 0.1235 0.3796 0.1250 (  1084 PWs)   bands (ev):

    -6.5507  -4.2666  -0.5138  -0.4186   2.0904   2.0928   4.8293   4.8741
     5.7742   6.9116   7.0407   8.1645   8.1684   8.2990  10.2940  11.3971
    18.1819  18.8984  20.9213  21.1517

          k = 0.1235 0.3796 0.3749 (  1075 PWs)   bands (ev):

    -5.4337  -3.2767  -3.2252  -1.4162   1.6310   3.3622   3.3937   5.3862
     5.4760   6.8827   6.8902   8.7937   9.2722   9.3102   9.3843  11.6073
    20.3987  21.0338  21.3142  21.3433

          k = 0.3706 0.1265 0.1250 (  1078 PWs)   bands (ev):

    -6.6054  -4.4243  -0.4275  -0.3296   2.1608   2.1714   4.9133   4.9687
     5.7476   6.8728   7.0059   7.9912   8.2304   8.6013  10.5340  11.1128
    18.7160  19.3232  20.4559  20.6990

          k = 0.3706 0.1265 0.3749 (  1070 PWs)   bands (ev):

    -5.4867  -3.3722  -3.3231  -1.4973   1.8139   3.5207   3.5468   5.5918
     5.7316   7.1363   7.1492   8.9095   9.0612   9.0642   9.1110  11.2918
    19.8437  21.1716  21.4020  21.4204

          k = 0.3706 0.3796 0.1250 (  1071 PWs)   bands (ev):

    -5.4594  -3.3478  -3.2475  -1.4536   1.7186   3.4240   3.4822   5.5311
     5.5536   7.0095   7.0122   8.9200   9.0926   9.1580   9.2810  11.4498
    20.1286  20.9649  21.3243  21.4978

          k = 0.3706 0.3796 0.3749 (  1066 PWs)   bands (ev):

    -4.3802  -2.4880  -2.4523  -2.4153   0.7284   0.7615   0.7934   2.6333
     8.9463   9.1085   9.3133   9.6227   9.7978   9.9365  10.5843  10.9342
    20.6765  20.8820  21.0693  21.4041

     the Fermi energy is    14.4661 ev

!    total energy              =    -147.45078307 Ry
     Harris-Foulkes estimate   =    -147.45078223 Ry
     estimated scf accuracy    <       0.00000006 Ry

     total all-electron energy =      -609.563564 Ry

     The total energy is the sum of the following terms:

     one-electron contribution =      33.69646786 Ry
     hartree contribution      =       7.76994186 Ry
     xc contribution           =     -37.46990862 Ry
     ewald contribution        =    -102.14390226 Ry
     one-center paw contrib.   =     -49.30338191 Ry
     smearing contrib. (-TS)   =       0.00000000 Ry

     convergence has been achieved in   7 iterations

     Forces acting on atoms (Ry/au):

     atom    1 type  1   force =     0.00000000    0.00000000    0.00000000
     atom    2 type  1   force =     0.00000000    0.00000000    0.00000000
     atom    3 type  1   force =     0.00000000    0.00000000    0.00000000
     atom    4 type  1   force =     0.00000000    0.00000000    0.00000000
     atom    5 type  1   force =     0.00000023    0.00000088   -0.00000528
     atom    6 type  1   force =    -0.00000023   -0.00000088   -0.00000528
     atom    7 type  1   force =     0.00000023   -0.00000088    0.00000528
     atom    8 type  1   force =    -0.00000023    0.00000088    0.00000528

     Total force =     0.000011     Total SCF correction =     0.000090
     SCF correction compared to forces is large: reduce conv_thr to get better values


     entering subroutine stress ...

          total   stress  (Ry/bohr**3)                   (kbar)     P=  -47.01
  -0.00107247   0.00000000   0.00000000       -157.77      0.00      0.00
   0.00000000   0.00042553   0.00000000          0.00     62.60      0.00
   0.00000000   0.00000000  -0.00031173          0.00      0.00    -45.86


     Writing output data file template.save

     init_run     :      1.40s CPU      1.52s WALL (       1 calls)
     electrons    :      3.01s CPU      3.13s WALL (       1 calls)
     forces       :      0.17s CPU      0.17s WALL (       1 calls)
     stress       :      0.31s CPU      0.32s WALL (       1 calls)

     Called by init_run:
     wfcinit      :      0.33s CPU      0.33s WALL (       1 calls)
     potinit      :      0.52s CPU      0.56s WALL (       1 calls)

     Called by electrons:
     c_bands      :      1.85s CPU      1.94s WALL (       7 calls)
     sum_band     :      0.23s CPU      0.24s WALL (       7 calls)
     v_of_rho     :      0.08s CPU      0.08s WALL (       8 calls)
     newd         :      0.05s CPU      0.06s WALL (       8 calls)
     PAW_pot      :      1.17s CPU      1.22s WALL (       8 calls)
     mix_rho      :      0.01s CPU      0.01s WALL (       7 calls)

     Called by c_bands:
     init_us_2    :      0.01s CPU      0.02s WALL (     136 calls)
     cegterg      :      1.82s CPU      1.89s WALL (      56 calls)

     Called by sum_band:
     sum_band:bec :      0.00s CPU      0.00s WALL (      56 calls)
     addusdens    :      0.05s CPU      0.04s WALL (       7 calls)

     Called by *egterg:
     h_psi        :      1.42s CPU      1.49s WALL (     233 calls)
     s_psi        :      0.10s CPU      0.08s WALL (     233 calls)
     g_psi        :      0.00s CPU      0.01s WALL (     169 calls)
     cdiaghg      :      0.34s CPU      0.32s WALL (     225 calls)

     Called by h_psi:
     h_psi:pot    :      1.41s CPU      1.48s WALL (     233 calls)
     h_psi:calbec :      0.13s CPU      0.12s WALL (     233 calls)
     vloc_psi     :      1.21s CPU      1.27s WALL (     233 calls)
     add_vuspsi   :      0.07s CPU      0.08s WALL (     233 calls)

     General routines
     calbec       :      0.18s CPU      0.16s WALL (     329 calls)
     fft          :      0.08s CPU      0.06s WALL (     149 calls)
     ffts         :      0.01s CPU      0.00s WALL (      15 calls)
     fftw         :      1.24s CPU      1.31s WALL (    7652 calls)
     interpolate  :      0.02s CPU      0.01s WALL (      15 calls)
     davcio       :      0.00s CPU      0.00s WALL (       8 calls)

     Parallel routines
     fft_scatter  :      0.38s CPU      0.42s WALL (    7816 calls)

     PWSCF        :     5.62s CPU         6.00s WALL


   This run was terminated on:  12:50: 7   9Jun2017            

=------------------------------------------------------------------------------=
   JOB DONE.
=------------------------------------------------------------------------------=
