
     Program PWSCF v.6.0 (svn rev. 13079) starts on  9Jun2017 at 12:50:55 

     This program is part of the open-source Quantum ESPRESSO suite
     for quantum simulation of materials; please cite
         "P. Giannozzi et al., J. Phys.:Condens. Matter 21 395502 (2009);
          URL http://www.quantum-espresso.org", 
     in publications or presentations arising from this work. More details at
     http://www.quantum-espresso.org/quote

     Parallel version (MPI), running on     4 processors
     R & G space division:  proc/nbgrp/npool/nimage =       4
     Waiting for input...
     Reading input from standard input
Warning: card &IONS ignored
Warning: card ION_DYNAMICS='BFGS', ignored
Warning: card / ignored
Warning: card &CELL ignored
Warning: card CELL_DYNAMICS='BFGS', ignored
Warning: card PRESS = 0.0, ignored
Warning: card CELL_FACTOR = 2.0, ignored
Warning: card / ignored

     Current dimensions of program PWSCF are:
     Max number of different atomic species (ntypx) = 10
     Max number of k-points (npk) =  40000
     Max angular momentum in pseudopotentials (lmaxx) =  3
               file C.pbe-n-kjpaw_psl.1.0.0.UPF: wavefunction(s)  2S 2P renormalized

     Subspace diagonalization in iterative solution of the eigenvalue problem:
     a serial algorithm will be used

     Found symmetry operation: I + ( -0.5000 -0.5000  0.0000)
     This is a supercell, fractional translations are disabled

     Parallelization info
     --------------------
     sticks:   dense  smooth     PW     G-vecs:    dense   smooth      PW
     Min         183     127     37                 3672     2145     348
     Max         184     128     38                 3673     2146     349
     Sum         733     511    149                14691     8583    1395



     bravais-lattice index     =            0
     lattice parameter (alat)  =       6.7508  a.u.
     unit-cell volume          =     307.6597 (a.u.)^3
     number of atoms/cell      =            8
     number of atomic types    =            1
     number of electrons       =        32.00
     number of Kohn-Sham states=           20
     kinetic-energy cutoff     =      35.0000  Ry
     charge density cutoff     =     200.0000  Ry
     convergence threshold     =      1.0E-06
     mixing beta               =       0.3000
     number of iterations used =           10  TF        mixing
     Exchange-correlation      =  SLA  PW   PBX  PBC ( 1  4  3  4 0 0)

     celldm(1)=   6.750826  celldm(2)=   0.000000  celldm(3)=   0.000000
     celldm(4)=   0.000000  celldm(5)=   0.000000  celldm(6)=   0.000000

     crystal axes: (cart. coord. in units of alat)
               a(1) = (   1.000000   0.008000   0.000000 )  
               a(2) = (   0.008000   1.000000   0.000000 )  
               a(3) = (   0.000000   0.000000   1.000064 )  

     reciprocal axes: (cart. coord. in units 2 pi/alat)
               b(1) = (  1.000064 -0.008001  0.000000 )  
               b(2) = ( -0.008001  1.000064  0.000000 )  
               b(3) = (  0.000000  0.000000  0.999936 )  


     PseudoPot. # 1 for  C read from file:
     /home/ben/espresso/pp/C.pbe-n-kjpaw_psl.1.0.0.UPF
     MD5 check sum: 151efd6a948e5eaef53e53bb29d01b27
     Pseudo is Projector augmented-wave + core cor, Zval =  4.0
     Generated using "atomic" code by A. Dal Corso  v.5.1
     Shape of augmentation charge: PSQ
     Using radial grid of 1073 points,  4 beta functions with: 
                l(1) =   0
                l(2) =   0
                l(3) =   1
                l(4) =   1
     Q(r) pseudized with 0 coefficients 


     atomic species   valence    mass     pseudopotential
        C              4.00    12.00000      C( 1.00)

      4 Sym. Ops. (no inversion) found



   Cartesian axes

     site n.     atom                  positions (alat units)
         1           C   tau(   1) = (   0.0000000   0.0000000   0.0000000  )
         2           C   tau(   2) = (   0.5040000   0.5040000   0.0000000  )
         3           C   tau(   3) = (   0.5000000   0.0040000   0.5000320  )
         4           C   tau(   4) = (   0.0040000   0.5000000   0.5000320  )
         5           C   tau(   5) = (   0.2520000   0.2520000   0.2500160  )
         6           C   tau(   6) = (   0.7560000   0.7560000   0.2500160  )
         7           C   tau(   7) = (   0.2560000   0.7520000   0.7500480  )
         8           C   tau(   8) = (   0.7520000   0.2560000   0.7500480  )

     number of k points=    12  Marzari-Vanderbilt smearing, width (Ry)=  0.0200
                       cart. coord. in units 2pi/alat
        k(    1) = (   0.1240079   0.1240079   0.1249920), wk =   0.1250000
        k(    2) = (   0.1240079   0.1240079   0.3749760), wk =   0.1250000
        k(    3) = (   0.1220078   0.3740239   0.1249920), wk =   0.2500000
        k(    4) = (   0.1220078   0.3740239   0.3749760), wk =   0.2500000
        k(    5) = (   0.1280082  -0.3760241   0.1249920), wk =   0.2500000
        k(    6) = (   0.1280082  -0.3760241   0.3749760), wk =   0.2500000
        k(    7) = (   0.1260081  -0.1260081   0.1249920), wk =   0.1250000
        k(    8) = (   0.1260081  -0.1260081   0.3749760), wk =   0.1250000
        k(    9) = (   0.3720238   0.3720238   0.1249920), wk =   0.1250000
        k(   10) = (   0.3720238   0.3720238   0.3749760), wk =   0.1250000
        k(   11) = (   0.3780242  -0.3780242   0.1249920), wk =   0.1250000
        k(   12) = (   0.3780242  -0.3780242   0.3749760), wk =   0.1250000

     Dense  grid:    14691 G-vectors     FFT dimensions: (  32,  32,  32)

     Smooth grid:     8583 G-vectors     FFT dimensions: (  25,  25,  25)

     Estimated max dynamical RAM per process >       4.45Mb

     Estimated total allocated dynamical RAM >      17.79Mb

     Check: negative/imaginary core charge=   -0.000073    0.000000

     Initial potential from superposition of free atoms

     starting charge   31.99967, renormalised to   32.00000
     Starting wfc are   32 randomized atomic wfcs
     Checking if some PAW data can be deallocated... 

     total cpu time spent up to now is        2.4 secs

     per-process dynamical memory:    17.1 Mb

     Self-consistent Calculation

     iteration #  1     ecut=    35.00 Ry     beta=0.30
     Davidson diagonalization with overlap
     ethr =  1.00E-02,  avg # of iterations =  2.7

     total cpu time spent up to now is        4.0 secs

     total energy              =    -147.54901596 Ry
     Harris-Foulkes estimate   =    -147.63030538 Ry
     estimated scf accuracy    <       0.46574375 Ry

     iteration #  2     ecut=    35.00 Ry     beta=0.30
     Davidson diagonalization with overlap
     ethr =  1.46E-03,  avg # of iterations =  1.0

     total cpu time spent up to now is        5.2 secs

     total energy              =    -147.42365565 Ry
     Harris-Foulkes estimate   =    -147.55200991 Ry
     estimated scf accuracy    <       0.27463134 Ry

     iteration #  3     ecut=    35.00 Ry     beta=0.30
     Davidson diagonalization with overlap
     ethr =  8.58E-04,  avg # of iterations =  2.5

     total cpu time spent up to now is        5.7 secs

     total energy              =    -147.45077108 Ry
     Harris-Foulkes estimate   =    -147.44765925 Ry
     estimated scf accuracy    <       0.00293636 Ry

     iteration #  4     ecut=    35.00 Ry     beta=0.30
     Davidson diagonalization with overlap
     ethr =  9.18E-06,  avg # of iterations =  7.7

     total cpu time spent up to now is        6.5 secs

     total energy              =    -147.45191301 Ry
     Harris-Foulkes estimate   =    -147.45165834 Ry
     estimated scf accuracy    <       0.00021198 Ry

     iteration #  5     ecut=    35.00 Ry     beta=0.30
     Davidson diagonalization with overlap
     ethr =  6.62E-07,  avg # of iterations =  2.1

     total cpu time spent up to now is        7.0 secs

     total energy              =    -147.45191147 Ry
     Harris-Foulkes estimate   =    -147.45195711 Ry
     estimated scf accuracy    <       0.00000894 Ry

     iteration #  6     ecut=    35.00 Ry     beta=0.30
     Davidson diagonalization with overlap
     ethr =  2.79E-08,  avg # of iterations =  2.1

     total cpu time spent up to now is        7.5 secs

     total energy              =    -147.45191926 Ry
     Harris-Foulkes estimate   =    -147.45191514 Ry
     estimated scf accuracy    <       0.00000583 Ry

     iteration #  7     ecut=    35.00 Ry     beta=0.30
     Davidson diagonalization with overlap
     ethr =  1.82E-08,  avg # of iterations =  2.0

     total cpu time spent up to now is        8.0 secs

     End of self-consistent calculation

          k = 0.1240 0.1240 0.1250 (  1082 PWs)   bands (ev):

    -7.7240  -1.1731  -1.1187  -1.1186   2.5611   2.5612   2.5993   5.8579
     5.9966   5.9967   7.3697   7.3698   7.5301  10.8009  12.6504  12.6591
    18.2462  18.2463  18.4712  19.5926

          k = 0.1240 0.1240 0.3750 (  1082 PWs)   bands (ev):

    -6.5857  -4.3555  -0.3720  -0.3719   2.0600   2.0601   4.9587   4.9588
     5.6618   6.9020   6.9021   8.0720   8.0807   8.5832  10.5172  11.2996
    18.5064  19.0911  20.8107  20.8108

          k = 0.1220 0.3740 0.1250 (  1079 PWs)   bands (ev):

    -6.5951  -4.3223  -0.4875  -0.3087   2.0292   2.1017   4.8724   4.9193
     5.7435   6.9688   7.0318   8.1196   8.1553   8.4230  10.4427  11.2396
    18.4158  19.1710  20.7741  21.0845

          k = 0.1220 0.3740 0.3750 (  1073 PWs)   bands (ev):

    -5.4782  -3.3227  -3.2724  -1.4080   1.7265   3.3593   3.4750   5.4449
     5.5094   7.0034   7.1301   9.0173   9.0686   9.1621   9.2341  11.4846
    20.1039  21.2321  21.3179  21.3501

          k = 0.1280-0.3760 0.1250 (  1075 PWs)   bands (ev):

    -6.5649  -4.3742  -0.5382  -0.3721   2.1633   2.2264   4.8675   4.9188
     5.8008   6.8806   6.9378   8.0219   8.2414   8.4639  10.3825  11.2643
    18.4813  19.0438  20.5212  20.8332

          k = 0.1280-0.3760 0.3750 (  1074 PWs)   bands (ev):

    -5.4465  -3.3306  -3.2826  -1.5113   1.7140   3.4327   3.5501   5.6025
     5.6182   6.9037   7.0281   8.8339   9.1116   9.1826   9.2659  11.4124
    20.1338  21.0952  21.2320  21.3535

          k = 0.1260-0.1260 0.1250 (  1079 PWs)   bands (ev):

    -7.7140  -1.1973  -1.1972  -1.1511   2.6391   2.6800   2.6800   5.9258
     5.9258   6.0677   7.2251   7.3834   7.3834  10.9372  12.6058  12.6064
    18.0030  18.2550  18.2550  19.5221

          k = 0.1260-0.1260 0.3750 (  1079 PWs)   bands (ev):

    -6.5754  -4.3438  -0.4767  -0.4767   2.1986   2.1986   4.8302   4.8302
     5.8802   7.0098   7.0098   8.0661   8.3060   8.3174  10.3125  11.1913
    18.3655  19.1113  20.7895  20.7895

          k = 0.3720 0.3720 0.1250 (  1073 PWs)   bands (ev):

    -5.5078  -3.2214  -3.2213  -1.5916   1.7515   3.4348   3.4348   5.5018
     5.5714   6.9995   6.9995   8.9170   9.1916   9.1941   9.1943  11.4779
    20.3482  21.1537  21.1538  21.5779

          k = 0.3720 0.3720 0.3750 (  1065 PWs)   bands (ev):

    -4.4327  -2.5325  -2.3590  -2.3589   0.7247   0.7529   0.7529   2.5757
     9.0887   9.0889   9.2087   9.7076   9.7077   9.8512  10.8125  10.8359
    20.8358  20.8359  21.0115  21.5129

          k = 0.3780-0.3780 0.1250 (  1077 PWs)   bands (ev):

    -5.4160  -3.3805  -3.3804  -1.3221   1.6811   3.4682   3.4682   5.5358
     5.5563   7.0324   7.0324   8.9296   8.9926   9.2329   9.2329  11.4227
    19.8991  21.2085  21.3221  21.3222

          k = 0.3780-0.3780 0.3750 (  1061 PWs)   bands (ev):

    -4.3329  -2.5500  -2.5499  -2.3794   0.7639   0.7639   0.7964   2.6862
     9.0656   9.1937   9.1938   9.6873   9.8268   9.8269  10.6737  10.7079
    20.7480  20.9271  20.9272  21.4935

     the Fermi energy is    14.5245 ev

!    total energy              =    -147.45192072 Ry
     Harris-Foulkes estimate   =    -147.45192002 Ry
     estimated scf accuracy    <       0.00000008 Ry

     total all-electron energy =      -609.564702 Ry

     The total energy is the sum of the following terms:

     one-electron contribution =      33.67719292 Ry
     hartree contribution      =       7.77824257 Ry
     xc contribution           =     -37.47158451 Ry
     ewald contribution        =    -102.13225538 Ry
     one-center paw contrib.   =     -49.30351632 Ry
     smearing contrib. (-TS)   =       0.00000000 Ry

     convergence has been achieved in   7 iterations

     Forces acting on atoms (Ry/au):

     atom    1 type  1   force =     0.00000000    0.00000000    0.00160454
     atom    2 type  1   force =     0.00000000    0.00000000    0.00160446
     atom    3 type  1   force =     0.00000000    0.00000000    0.00159948
     atom    4 type  1   force =     0.00000000    0.00000000    0.00159948
     atom    5 type  1   force =    -0.00000145   -0.00000145   -0.00160519
     atom    6 type  1   force =     0.00000145    0.00000145   -0.00160519
     atom    7 type  1   force =    -0.00000082    0.00000082   -0.00159880
     atom    8 type  1   force =     0.00000082   -0.00000082   -0.00159880

     Total force =     0.004531     Total SCF correction =     0.000079


     entering subroutine stress ...

          total   stress  (Ry/bohr**3)                   (kbar)     P=  -46.47
  -0.00031036  -0.00060467   0.00000000        -45.66    -88.95      0.00
  -0.00060467  -0.00031036   0.00000000        -88.95    -45.66      0.00
   0.00000000   0.00000000  -0.00032695          0.00      0.00    -48.10


     Writing output data file template.save

     init_run     :      1.48s CPU      1.61s WALL (       1 calls)
     electrons    :      5.31s CPU      5.57s WALL (       1 calls)
     forces       :      0.20s CPU      0.20s WALL (       1 calls)
     stress       :      0.38s CPU      0.38s WALL (       1 calls)

     Called by init_run:
     wfcinit      :      0.45s CPU      0.48s WALL (       1 calls)
     potinit      :      0.50s CPU      0.54s WALL (       1 calls)

     Called by electrons:
     c_bands      :      3.31s CPU      3.48s WALL (       7 calls)
     sum_band     :      0.52s CPU      0.54s WALL (       7 calls)
     v_of_rho     :      0.12s CPU      0.11s WALL (       8 calls)
     newd         :      0.06s CPU      0.08s WALL (       8 calls)
     PAW_pot      :      1.66s CPU      1.77s WALL (       8 calls)
     mix_rho      :      0.01s CPU      0.01s WALL (       7 calls)

     Called by c_bands:
     init_us_2    :      0.05s CPU      0.04s WALL (     204 calls)
     cegterg      :      3.23s CPU      3.38s WALL (      84 calls)

     Called by sum_band:
     sum_band:bec :      0.00s CPU      0.00s WALL (      84 calls)
     addusdens    :      0.06s CPU      0.06s WALL (       7 calls)

     Called by *egterg:
     h_psi        :      2.47s CPU      2.65s WALL (     336 calls)
     s_psi        :      0.14s CPU      0.13s WALL (     336 calls)
     g_psi        :      0.00s CPU      0.01s WALL (     240 calls)
     cdiaghg      :      0.47s CPU      0.47s WALL (     324 calls)

     Called by h_psi:
     h_psi:pot    :      2.45s CPU      2.64s WALL (     336 calls)
     h_psi:calbec :      0.19s CPU      0.22s WALL (     336 calls)
     vloc_psi     :      2.12s CPU      2.28s WALL (     336 calls)
     add_vuspsi   :      0.14s CPU      0.15s WALL (     336 calls)

     General routines
     calbec       :      0.29s CPU      0.32s WALL (     480 calls)
     fft          :      0.09s CPU      0.09s WALL (     149 calls)
     ffts         :      0.00s CPU      0.00s WALL (      15 calls)
     fftw         :      2.31s CPU      2.44s WALL (   11438 calls)
     interpolate  :      0.01s CPU      0.01s WALL (      15 calls)
     davcio       :      0.00s CPU      0.00s WALL (      12 calls)

     Parallel routines
     fft_scatter  :      0.87s CPU      0.84s WALL (   11602 calls)

     PWSCF        :     8.11s CPU         8.61s WALL


   This run was terminated on:  12:51: 4   9Jun2017            

=------------------------------------------------------------------------------=
   JOB DONE.
=------------------------------------------------------------------------------=
