
     Program PWSCF v.6.0 (svn rev. 13079) starts on  9Jun2017 at 12:51:34 

     This program is part of the open-source Quantum ESPRESSO suite
     for quantum simulation of materials; please cite
         "P. Giannozzi et al., J. Phys.:Condens. Matter 21 395502 (2009);
          URL http://www.quantum-espresso.org", 
     in publications or presentations arising from this work. More details at
     http://www.quantum-espresso.org/quote

     Parallel version (MPI), running on     4 processors
     R & G space division:  proc/nbgrp/npool/nimage =       4
     Waiting for input...
     Reading input from standard input
Warning: card &IONS ignored
Warning: card ION_DYNAMICS='BFGS', ignored
Warning: card / ignored
Warning: card &CELL ignored
Warning: card CELL_DYNAMICS='BFGS', ignored
Warning: card PRESS = 0.0, ignored
Warning: card CELL_FACTOR = 2.0, ignored
Warning: card / ignored

     Current dimensions of program PWSCF are:
     Max number of different atomic species (ntypx) = 10
     Max number of k-points (npk) =  40000
     Max angular momentum in pseudopotentials (lmaxx) =  3
               file C.pbe-n-kjpaw_psl.1.0.0.UPF: wavefunction(s)  2S 2P renormalized

     Subspace diagonalization in iterative solution of the eigenvalue problem:
     a serial algorithm will be used

     Found symmetry operation: I + ( -0.5000 -0.5000  0.0000)
     This is a supercell, fractional translations are disabled

     Parallelization info
     --------------------
     sticks:   dense  smooth     PW     G-vecs:    dense   smooth      PW
     Min         181     125     37                 3663     2149     355
     Max         182     126     39                 3666     2152     356
     Sum         725     503    151                14659     8603    1421



     bravais-lattice index     =            0
     lattice parameter (alat)  =       6.7508  a.u.
     unit-cell volume          =     307.6597 (a.u.)^3
     number of atoms/cell      =            8
     number of atomic types    =            1
     number of electrons       =        32.00
     number of Kohn-Sham states=           20
     kinetic-energy cutoff     =      35.0000  Ry
     charge density cutoff     =     200.0000  Ry
     convergence threshold     =      1.0E-06
     mixing beta               =       0.3000
     number of iterations used =           10  TF        mixing
     Exchange-correlation      =  SLA  PW   PBX  PBC ( 1  4  3  4 0 0)

     celldm(1)=   6.750826  celldm(2)=   0.000000  celldm(3)=   0.000000
     celldm(4)=   0.000000  celldm(5)=   0.000000  celldm(6)=   0.000000

     crystal axes: (cart. coord. in units of alat)
               a(1) = (   1.000000   0.018000   0.000000 )  
               a(2) = (   0.018000   1.000000   0.000000 )  
               a(3) = (   0.000000   0.000000   1.000324 )  

     reciprocal axes: (cart. coord. in units 2 pi/alat)
               b(1) = (  1.000324 -0.018006  0.000000 )  
               b(2) = ( -0.018006  1.000324  0.000000 )  
               b(3) = (  0.000000  0.000000  0.999676 )  


     PseudoPot. # 1 for  C read from file:
     /home/ben/espresso/pp/C.pbe-n-kjpaw_psl.1.0.0.UPF
     MD5 check sum: 151efd6a948e5eaef53e53bb29d01b27
     Pseudo is Projector augmented-wave + core cor, Zval =  4.0
     Generated using "atomic" code by A. Dal Corso  v.5.1
     Shape of augmentation charge: PSQ
     Using radial grid of 1073 points,  4 beta functions with: 
                l(1) =   0
                l(2) =   0
                l(3) =   1
                l(4) =   1
     Q(r) pseudized with 0 coefficients 


     atomic species   valence    mass     pseudopotential
        C              4.00    12.00000      C( 1.00)

      4 Sym. Ops. (no inversion) found



   Cartesian axes

     site n.     atom                  positions (alat units)
         1           C   tau(   1) = (   0.0000000   0.0000000   0.0000000  )
         2           C   tau(   2) = (   0.5090000   0.5090000   0.0000000  )
         3           C   tau(   3) = (   0.5000000   0.0090000   0.5001621  )
         4           C   tau(   4) = (   0.0090000   0.5000000   0.5001621  )
         5           C   tau(   5) = (   0.2545000   0.2545000   0.2500810  )
         6           C   tau(   6) = (   0.7635000   0.7635000   0.2500810  )
         7           C   tau(   7) = (   0.2635000   0.7545000   0.7502431  )
         8           C   tau(   8) = (   0.7545000   0.2635000   0.7502431  )

     number of k points=    12  Marzari-Vanderbilt smearing, width (Ry)=  0.0200
                       cart. coord. in units 2pi/alat
        k(    1) = (   0.1227898   0.1227898   0.1249595), wk =   0.1250000
        k(    2) = (   0.1227898   0.1227898   0.3748785), wk =   0.1250000
        k(    3) = (   0.1182883   0.3728708   0.1249595), wk =   0.2500000
        k(    4) = (   0.1182883   0.3728708   0.3748785), wk =   0.2500000
        k(    5) = (   0.1317927  -0.3773723   0.1249595), wk =   0.2500000
        k(    6) = (   0.1317927  -0.3773723   0.3748785), wk =   0.2500000
        k(    7) = (   0.1272912  -0.1272912   0.1249595), wk =   0.1250000
        k(    8) = (   0.1272912  -0.1272912   0.3748785), wk =   0.1250000
        k(    9) = (   0.3683694   0.3683694   0.1249595), wk =   0.1250000
        k(   10) = (   0.3683694   0.3683694   0.3748785), wk =   0.1250000
        k(   11) = (   0.3818737  -0.3818737   0.1249595), wk =   0.1250000
        k(   12) = (   0.3818737  -0.3818737   0.3748785), wk =   0.1250000

     Dense  grid:    14659 G-vectors     FFT dimensions: (  32,  32,  32)

     Smooth grid:     8603 G-vectors     FFT dimensions: (  25,  25,  25)

     Estimated max dynamical RAM per process >       4.44Mb

     Estimated total allocated dynamical RAM >      17.78Mb

     Check: negative/imaginary core charge=   -0.000076    0.000000

     Initial potential from superposition of free atoms

     starting charge   31.99967, renormalised to   32.00000
     Starting wfc are   32 randomized atomic wfcs
     Checking if some PAW data can be deallocated... 

     total cpu time spent up to now is        0.8 secs

     per-process dynamical memory:    17.1 Mb

     Self-consistent Calculation

     iteration #  1     ecut=    35.00 Ry     beta=0.30
     Davidson diagonalization with overlap
     ethr =  1.00E-02,  avg # of iterations =  3.1

     total cpu time spent up to now is        1.4 secs

     total energy              =    -147.54340048 Ry
     Harris-Foulkes estimate   =    -147.62514153 Ry
     estimated scf accuracy    <       0.46762061 Ry

     iteration #  2     ecut=    35.00 Ry     beta=0.30
     Davidson diagonalization with overlap
     ethr =  1.46E-03,  avg # of iterations =  1.0

     total cpu time spent up to now is        1.8 secs

     total energy              =    -147.41730326 Ry
     Harris-Foulkes estimate   =    -147.54643169 Ry
     estimated scf accuracy    <       0.27565599 Ry

     iteration #  3     ecut=    35.00 Ry     beta=0.30
     Davidson diagonalization with overlap
     ethr =  8.61E-04,  avg # of iterations =  2.0

     total cpu time spent up to now is        2.2 secs

     total energy              =    -147.44456758 Ry
     Harris-Foulkes estimate   =    -147.44147225 Ry
     estimated scf accuracy    <       0.00296074 Ry

     iteration #  4     ecut=    35.00 Ry     beta=0.30
     Davidson diagonalization with overlap
     ethr =  9.25E-06,  avg # of iterations =  7.2

     total cpu time spent up to now is        2.9 secs

     total energy              =    -147.44577408 Ry
     Harris-Foulkes estimate   =    -147.44550977 Ry
     estimated scf accuracy    <       0.00023813 Ry

     iteration #  5     ecut=    35.00 Ry     beta=0.30
     Davidson diagonalization with overlap
     ethr =  7.44E-07,  avg # of iterations =  2.2

     total cpu time spent up to now is        3.3 secs

     total energy              =    -147.44577297 Ry
     Harris-Foulkes estimate   =    -147.44582328 Ry
     estimated scf accuracy    <       0.00001203 Ry

     iteration #  6     ecut=    35.00 Ry     beta=0.30
     Davidson diagonalization with overlap
     ethr =  3.76E-08,  avg # of iterations =  2.1

     total cpu time spent up to now is        3.8 secs

     total energy              =    -147.44578159 Ry
     Harris-Foulkes estimate   =    -147.44577655 Ry
     estimated scf accuracy    <       0.00000536 Ry

     iteration #  7     ecut=    35.00 Ry     beta=0.30
     Davidson diagonalization with overlap
     ethr =  1.68E-08,  avg # of iterations =  2.0

     total cpu time spent up to now is        4.3 secs

     End of self-consistent calculation

          k = 0.1228 0.1228 0.1250 (  1076 PWs)   bands (ev):

    -7.7338  -1.2052  -1.0706  -1.0705   2.4881   2.4882   2.5703   5.7367
     6.0458   6.0458   7.3660   7.3661   7.7300  10.7134  12.6667  12.6983
    18.2403  18.2403  18.6381  19.3762

          k = 0.1228 0.1228 0.3749 (  1087 PWs)   bands (ev):

    -6.5969  -4.3709  -0.3097  -0.3096   1.9774   1.9774   5.0414   5.0415
     5.5185   6.8439   6.8440   7.9341   8.0692   8.7628  10.6481  11.3438
    18.5343  19.0377  20.8145  20.8146

          k = 0.1183 0.3729 0.1250 (  1076 PWs)   bands (ev):

    -6.6170  -4.2921  -0.5838  -0.1653   1.9040   2.0776   4.8498   4.9484
     5.7059   6.9869   7.1367   8.0973   8.1796   8.4087  10.4750  11.2354
    18.3738  19.2336  20.7421  21.4312

          k = 0.1183 0.3729 0.3749 (  1073 PWs)   bands (ev):

    -5.5027  -3.3565  -3.2402  -1.3545   1.7438   3.2455   3.5040   5.3369
     5.4554   6.9849   7.2766   9.0450   9.1114   9.1332   9.2587  11.5246
    20.0806  21.1322  21.2099  21.4412

          k = 0.1318-0.3774 0.1250 (  1081 PWs)   bands (ev):

    -6.5490  -4.4088  -0.6815  -0.3271   2.2191   2.3456   4.8330   4.9541
     5.8329   6.7943   6.9167   7.9647   8.2892   8.4907  10.3394  11.2904
    18.5207  18.9499  20.1763  20.8743

          k = 0.1318-0.3774 0.3749 (  1073 PWs)   bands (ev):

    -5.4311  -3.3714  -3.2662  -1.5861   1.7145   3.4077   3.6758   5.6669
     5.7291   6.7669   7.0421   8.7223   9.1407   9.1432   9.3400  11.3649
    20.1479  20.8877  21.1937  21.2038

          k = 0.1273-0.1273 0.1250 (  1076 PWs)   bands (ev):

    -7.7114  -1.2472  -1.2471  -1.1556   2.6595   2.7551   2.7552   5.8838
     5.8839   6.2101   7.0443   7.3971   7.3971  11.0133  12.5668  12.5765
    17.6823  18.2597  18.2597  19.2713

          k = 0.1273-0.1273 0.3749 (  1084 PWs)   bands (ev):

    -6.5739  -4.3444  -0.5449  -0.5448   2.2885   2.2886   4.7526   4.7526
     6.0072   7.0849   7.0849   8.0630   8.1396   8.4640  10.1859  11.1039
    18.2317  19.0876  20.7665  20.7666

          k = 0.3684 0.3684 0.1250 (  1076 PWs)   bands (ev):

    -5.5680  -3.1234  -3.1233  -1.7595   1.7881   3.4069   3.4069   5.4600
     5.5876   6.9792   6.9793   8.9046   9.1806   9.1807   9.3232  11.5234
    20.6419  21.0496  21.0497  21.8152

          k = 0.3684 0.3684 0.3749 (  1065 PWs)   bands (ev):

    -4.4994  -2.6369  -2.2423  -2.2422   0.6856   0.7449   0.7449   2.5077
     9.0255   9.0256   9.2862   9.6373   9.6374   9.9636  10.8946  10.9301
    20.7560  20.7561  21.1335  21.2899

          k = 0.3819-0.3819 0.1250 (  1077 PWs)   bands (ev):

    -5.3610  -3.4812  -3.4811  -1.1528   1.6299   3.4815   3.4815   5.5099
     5.5835   7.0504   7.0504   8.8824   8.9382   9.2684   9.2685  11.3998
    19.6345  20.9817  21.4256  21.5615

          k = 0.3819-0.3819 0.3749 (  1054 PWs)   bands (ev):

    -4.2749  -2.6718  -2.6717  -2.2934   0.7702   0.7702   0.8480   2.7564
     8.9691   9.2635   9.2636   9.5961   9.9025   9.9025  10.5689  10.6540
    20.5587  20.9546  20.9547  21.2967

     the Fermi energy is    14.7000 ev

!    total energy              =    -147.44578294 Ry
     Harris-Foulkes estimate   =    -147.44578231 Ry
     estimated scf accuracy    <       0.00000012 Ry

     total all-electron energy =      -609.558564 Ry

     The total energy is the sum of the following terms:

     one-electron contribution =      33.65182704 Ry
     hartree contribution      =       7.79207215 Ry
     xc contribution           =     -37.47349592 Ry
     ewald contribution        =    -102.11233034 Ry
     one-center paw contrib.   =     -49.30385586 Ry
     smearing contrib. (-TS)   =       0.00000000 Ry

     convergence has been achieved in   7 iterations

     Forces acting on atoms (Ry/au):

     atom    1 type  1   force =     0.00000000    0.00000000    0.00356606
     atom    2 type  1   force =     0.00000000    0.00000000    0.00356606
     atom    3 type  1   force =     0.00000000    0.00000000    0.00356103
     atom    4 type  1   force =     0.00000000    0.00000000    0.00356103
     atom    5 type  1   force =    -0.00000023   -0.00000023   -0.00356598
     atom    6 type  1   force =     0.00000023    0.00000023   -0.00356598
     atom    7 type  1   force =     0.00000001   -0.00000001   -0.00356111
     atom    8 type  1   force =    -0.00000001    0.00000001   -0.00356111

     Total force =     0.010079     Total SCF correction =     0.000081


     entering subroutine stress ...

          total   stress  (Ry/bohr**3)                   (kbar)     P=  -42.24
  -0.00026278  -0.00136399   0.00000000        -38.66   -200.65      0.00
  -0.00136399  -0.00026278   0.00000000       -200.65    -38.66      0.00
   0.00000000   0.00000000  -0.00033596          0.00      0.00    -49.42


     Writing output data file template.save

     init_run     :      0.54s CPU      0.56s WALL (       1 calls)
     electrons    :      3.39s CPU      3.45s WALL (       1 calls)
     forces       :      0.21s CPU      0.21s WALL (       1 calls)
     stress       :      0.40s CPU      0.40s WALL (       1 calls)

     Called by init_run:
     wfcinit      :      0.16s CPU      0.16s WALL (       1 calls)
     potinit      :      0.18s CPU      0.18s WALL (       1 calls)

     Called by electrons:
     c_bands      :      2.11s CPU      2.15s WALL (       7 calls)
     sum_band     :      0.32s CPU      0.33s WALL (       7 calls)
     v_of_rho     :      0.06s CPU      0.06s WALL (       8 calls)
     newd         :      0.04s CPU      0.05s WALL (       8 calls)
     PAW_pot      :      0.99s CPU      0.99s WALL (       8 calls)
     mix_rho      :      0.01s CPU      0.01s WALL (       7 calls)

     Called by c_bands:
     init_us_2    :      0.03s CPU      0.03s WALL (     204 calls)
     cegterg      :      2.05s CPU      2.09s WALL (      84 calls)

     Called by sum_band:
     sum_band:bec :      0.00s CPU      0.00s WALL (      84 calls)
     addusdens    :      0.03s CPU      0.04s WALL (       7 calls)

     Called by *egterg:
     h_psi        :      1.45s CPU      1.49s WALL (     330 calls)
     s_psi        :      0.07s CPU      0.08s WALL (     330 calls)
     g_psi        :      0.00s CPU      0.01s WALL (     234 calls)
     cdiaghg      :      0.35s CPU      0.33s WALL (     318 calls)

     Called by h_psi:
     h_psi:pot    :      1.44s CPU      1.48s WALL (     330 calls)
     h_psi:calbec :      0.14s CPU      0.12s WALL (     330 calls)
     vloc_psi     :      1.23s CPU      1.28s WALL (     330 calls)
     add_vuspsi   :      0.07s CPU      0.08s WALL (     330 calls)

     General routines
     calbec       :      0.20s CPU      0.19s WALL (     474 calls)
     fft          :      0.06s CPU      0.05s WALL (     149 calls)
     ffts         :      0.00s CPU      0.00s WALL (      15 calls)
     fftw         :      1.29s CPU      1.38s WALL (   11446 calls)
     interpolate  :      0.01s CPU      0.01s WALL (      15 calls)
     davcio       :      0.00s CPU      0.00s WALL (      12 calls)

     Parallel routines
     fft_scatter  :      0.40s CPU      0.42s WALL (   11610 calls)

     PWSCF        :     4.80s CPU         4.97s WALL


   This run was terminated on:  12:51:39   9Jun2017            

=------------------------------------------------------------------------------=
   JOB DONE.
=------------------------------------------------------------------------------=
