
     Program PWSCF v.6.0 (svn rev. 13079) starts on  9Jun2017 at 12:51:40 

     This program is part of the open-source Quantum ESPRESSO suite
     for quantum simulation of materials; please cite
         "P. Giannozzi et al., J. Phys.:Condens. Matter 21 395502 (2009);
          URL http://www.quantum-espresso.org", 
     in publications or presentations arising from this work. More details at
     http://www.quantum-espresso.org/quote

     Parallel version (MPI), running on     4 processors
     R & G space division:  proc/nbgrp/npool/nimage =       4
     Waiting for input...
     Reading input from standard input
Warning: card &IONS ignored
Warning: card ION_DYNAMICS='BFGS', ignored
Warning: card / ignored
Warning: card &CELL ignored
Warning: card CELL_DYNAMICS='BFGS', ignored
Warning: card PRESS = 0.0, ignored
Warning: card CELL_FACTOR = 2.0, ignored
Warning: card / ignored

     Current dimensions of program PWSCF are:
     Max number of different atomic species (ntypx) = 10
     Max number of k-points (npk) =  40000
     Max angular momentum in pseudopotentials (lmaxx) =  3
               file C.pbe-n-kjpaw_psl.1.0.0.UPF: wavefunction(s)  2S 2P renormalized

     Subspace diagonalization in iterative solution of the eigenvalue problem:
     a serial algorithm will be used

     Found symmetry operation: I + ( -0.5000 -0.5000  0.0000)
     This is a supercell, fractional translations are disabled

     Parallelization info
     --------------------
     sticks:   dense  smooth     PW     G-vecs:    dense   smooth      PW
     Min         182     125     37                 3665     2149     355
     Max         183     126     39                 3666     2152     356
     Sum         729     503    151                14663     8603    1421



     bravais-lattice index     =            0
     lattice parameter (alat)  =       6.7508  a.u.
     unit-cell volume          =     307.6597 (a.u.)^3
     number of atoms/cell      =            8
     number of atomic types    =            1
     number of electrons       =        32.00
     number of Kohn-Sham states=           20
     kinetic-energy cutoff     =      35.0000  Ry
     charge density cutoff     =     200.0000  Ry
     convergence threshold     =      1.0E-06
     mixing beta               =       0.3000
     number of iterations used =           10  TF        mixing
     Exchange-correlation      =  SLA  PW   PBX  PBC ( 1  4  3  4 0 0)

     celldm(1)=   6.750826  celldm(2)=   0.000000  celldm(3)=   0.000000
     celldm(4)=   0.000000  celldm(5)=   0.000000  celldm(6)=   0.000000

     crystal axes: (cart. coord. in units of alat)
               a(1) = (   1.000000   0.020000   0.000000 )  
               a(2) = (   0.020000   1.000000   0.000000 )  
               a(3) = (   0.000000   0.000000   1.000400 )  

     reciprocal axes: (cart. coord. in units 2 pi/alat)
               b(1) = (  1.000400 -0.020008  0.000000 )  
               b(2) = ( -0.020008  1.000400  0.000000 )  
               b(3) = (  0.000000  0.000000  0.999600 )  


     PseudoPot. # 1 for  C read from file:
     /home/ben/espresso/pp/C.pbe-n-kjpaw_psl.1.0.0.UPF
     MD5 check sum: 151efd6a948e5eaef53e53bb29d01b27
     Pseudo is Projector augmented-wave + core cor, Zval =  4.0
     Generated using "atomic" code by A. Dal Corso  v.5.1
     Shape of augmentation charge: PSQ
     Using radial grid of 1073 points,  4 beta functions with: 
                l(1) =   0
                l(2) =   0
                l(3) =   1
                l(4) =   1
     Q(r) pseudized with 0 coefficients 


     atomic species   valence    mass     pseudopotential
        C              4.00    12.00000      C( 1.00)

      4 Sym. Ops. (no inversion) found



   Cartesian axes

     site n.     atom                  positions (alat units)
         1           C   tau(   1) = (   0.0000000   0.0000000   0.0000000  )
         2           C   tau(   2) = (   0.5100000   0.5100000   0.0000000  )
         3           C   tau(   3) = (   0.5000000   0.0100000   0.5002001  )
         4           C   tau(   4) = (   0.0100000   0.5000000   0.5002001  )
         5           C   tau(   5) = (   0.2550000   0.2550000   0.2501000  )
         6           C   tau(   6) = (   0.7650000   0.7650000   0.2501000  )
         7           C   tau(   7) = (   0.2650000   0.7550000   0.7503001  )
         8           C   tau(   8) = (   0.7550000   0.2650000   0.7503001  )

     number of k points=    12  Marzari-Vanderbilt smearing, width (Ry)=  0.0200
                       cart. coord. in units 2pi/alat
        k(    1) = (   0.1225490   0.1225490   0.1249500), wk =   0.1250000
        k(    2) = (   0.1225490   0.1225490   0.3748500), wk =   0.1250000
        k(    3) = (   0.1175470   0.3726491   0.1249500), wk =   0.2500000
        k(    4) = (   0.1175470   0.3726491   0.3748500), wk =   0.2500000
        k(    5) = (   0.1325530  -0.3776511   0.1249500), wk =   0.2500000
        k(    6) = (   0.1325530  -0.3776511   0.3748500), wk =   0.2500000
        k(    7) = (   0.1275510  -0.1275510   0.1249500), wk =   0.1250000
        k(    8) = (   0.1275510  -0.1275510   0.3748500), wk =   0.1250000
        k(    9) = (   0.3676471   0.3676471   0.1249500), wk =   0.1250000
        k(   10) = (   0.3676471   0.3676471   0.3748500), wk =   0.1250000
        k(   11) = (   0.3826531  -0.3826531   0.1249500), wk =   0.1250000
        k(   12) = (   0.3826531  -0.3826531   0.3748500), wk =   0.1250000

     Dense  grid:    14663 G-vectors     FFT dimensions: (  32,  32,  32)

     Smooth grid:     8603 G-vectors     FFT dimensions: (  25,  25,  25)

     Estimated max dynamical RAM per process >       4.44Mb

     Estimated total allocated dynamical RAM >      17.78Mb

     Check: negative/imaginary core charge=   -0.000076    0.000000

     Initial potential from superposition of free atoms

     starting charge   31.99967, renormalised to   32.00000
     Starting wfc are   32 randomized atomic wfcs
     Checking if some PAW data can be deallocated... 

     total cpu time spent up to now is        1.4 secs

     per-process dynamical memory:    17.1 Mb

     Self-consistent Calculation

     iteration #  1     ecut=    35.00 Ry     beta=0.30
     Davidson diagonalization with overlap
     ethr =  1.00E-02,  avg # of iterations =  2.8

     total cpu time spent up to now is        3.5 secs

     total energy              =    -147.54160239 Ry
     Harris-Foulkes estimate   =    -147.62348507 Ry
     estimated scf accuracy    <       0.46815024 Ry

     iteration #  2     ecut=    35.00 Ry     beta=0.30
     Davidson diagonalization with overlap
     ethr =  1.46E-03,  avg # of iterations =  1.0

     total cpu time spent up to now is        4.8 secs

     total energy              =    -147.41540890 Ry
     Harris-Foulkes estimate   =    -147.54472868 Ry
     estimated scf accuracy    <       0.27590657 Ry

     iteration #  3     ecut=    35.00 Ry     beta=0.30
     Davidson diagonalization with overlap
     ethr =  8.62E-04,  avg # of iterations =  2.2

     total cpu time spent up to now is        6.4 secs

     total energy              =    -147.44271081 Ry
     Harris-Foulkes estimate   =    -147.43961736 Ry
     estimated scf accuracy    <       0.00296905 Ry

     iteration #  4     ecut=    35.00 Ry     beta=0.30
     Davidson diagonalization with overlap
     ethr =  9.28E-06,  avg # of iterations =  7.2

     total cpu time spent up to now is        8.9 secs

     total energy              =    -147.44391304 Ry
     Harris-Foulkes estimate   =    -147.44365211 Ry
     estimated scf accuracy    <       0.00024622 Ry

     iteration #  5     ecut=    35.00 Ry     beta=0.30
     Davidson diagonalization with overlap
     ethr =  7.69E-07,  avg # of iterations =  2.1

     total cpu time spent up to now is       10.5 secs

     total energy              =    -147.44391458 Ry
     Harris-Foulkes estimate   =    -147.44396231 Ry
     estimated scf accuracy    <       0.00001183 Ry

     iteration #  6     ecut=    35.00 Ry     beta=0.30
     Davidson diagonalization with overlap
     ethr =  3.70E-08,  avg # of iterations =  2.0

     total cpu time spent up to now is       12.3 secs

     total energy              =    -147.44392251 Ry
     Harris-Foulkes estimate   =    -147.44391776 Ry
     estimated scf accuracy    <       0.00000490 Ry

     iteration #  7     ecut=    35.00 Ry     beta=0.30
     Davidson diagonalization with overlap
     ethr =  1.53E-08,  avg # of iterations =  2.0

     total cpu time spent up to now is       13.8 secs

     End of self-consistent calculation

          k = 0.1225 0.1225 0.1250 (  1076 PWs)   bands (ev):

    -7.7361  -1.2133  -1.0612  -1.0611   2.4736   2.4736   2.5640   5.7131
     6.0557   6.0557   7.3657   7.3657   7.7703  10.6953  12.6689  12.7066
    18.2390  18.2390  18.6460  19.3293

          k = 0.1225 0.1225 0.3749 (  1083 PWs)   bands (ev):

    -6.5997  -4.3748  -0.2976  -0.2975   1.9611   1.9611   5.0584   5.0584
     5.4898   6.8330   6.8331   7.9048   8.0681   8.8032  10.6748  11.3511
    18.5341  19.0236  20.8144  20.8144

          k = 0.1175 0.3726 0.1250 (  1076 PWs)   bands (ev):

    -6.6218  -4.2862  -0.6052  -0.1367   1.8787   2.0739   4.8457   4.9538
     5.6981   6.9903   7.1584   8.0850   8.1903   8.4074  10.4805  11.2350
    18.3655  19.2441  20.7360  21.4976

          k = 0.1175 0.3726 0.3749 (  1075 PWs)   bands (ev):

    -5.5080  -3.3642  -3.2342  -1.3450   1.7481   3.2233   3.5097   5.3152
     5.4448   6.9807   7.3061   9.0405   9.1026   9.1561   9.2629  11.5327
    20.0754  21.0888  21.2032  21.4516

          k = 0.1326-0.3777 0.1250 (  1080 PWs)   bands (ev):

    -6.5462  -4.4159  -0.7102  -0.3208   2.2319   2.3689   4.8261   4.9620
     5.8387   6.7775   6.9123   7.9536   8.2994   8.4968  10.3292  11.2965
    18.5286  18.9308  20.1081  20.8830

          k = 0.1326-0.3777 0.3749 (  1072 PWs)   bands (ev):

    -5.4285  -3.3799  -3.2639  -1.6020   1.7151   3.4029   3.7013   5.6798
     5.7511   6.7394   7.0455   8.6998   9.1344   9.1466   9.3564  11.3558
    20.1500  20.8431  21.1547  21.1957

          k = 0.1276-0.1276 0.1250 (  1076 PWs)   bands (ev):

    -7.7113  -1.2574  -1.2573  -1.1583   2.6630   2.7702   2.7702   5.8756
     5.8757   6.2390   7.0088   7.4000   7.4001  11.0281  12.5577  12.5708
    17.6181  18.2605  18.2605  19.2223

          k = 0.1276-0.1276 0.3749 (  1082 PWs)   bands (ev):

    -6.5740  -4.3453  -0.5587  -0.5586   2.3069   2.3070   4.7372   4.7373
     6.0312   7.1007   7.1007   8.0623   8.1072   8.4931  10.1615  11.0849
    18.2018  19.0798  20.7612  20.7613

          k = 0.3676 0.3676 0.1250 (  1075 PWs)   bands (ev):

    -5.5802  -3.1039  -3.1039  -1.7931   1.7948   3.4005   3.4005   5.4510
     5.5902   6.9751   6.9751   8.9014   9.1788   9.1789   9.3536  11.5337
    20.7023  21.0289  21.0289  21.8632

          k = 0.3676 0.3676 0.3749 (  1063 PWs)   bands (ev):

    -4.5132  -2.6586  -2.2192  -2.2192   0.6783   0.7432   0.7432   2.4941
     9.0131   9.0131   9.3008   9.6240   9.6240   9.9892  10.9108  10.9479
    20.7385  20.7385  21.1530  21.2427

          k = 0.3827-0.3827 0.1250 (  1073 PWs)   bands (ev):

    -5.3503  -3.5015  -3.5014  -1.1189   1.6188   3.4835   3.4836   5.5040
     5.5882   7.0539   7.0540   8.8612   8.9390   9.2780   9.2781  11.3967
    19.5829  20.9375  21.4468  21.5207

          k = 0.3827-0.3827 0.3749 (  1057 PWs)   bands (ev):

    -4.2637  -2.6964  -2.6964  -2.2771   0.7713   0.7714   0.8589   2.7708
     8.9478   9.2779   9.2780   9.5754   9.9174   9.9175  10.5457  10.6428
    20.5189  20.9567  20.9568  21.2573

     the Fermi energy is    14.7355 ev

!    total energy              =    -147.44392387 Ry
     Harris-Foulkes estimate   =    -147.44392321 Ry
     estimated scf accuracy    <       0.00000010 Ry

     total all-electron energy =      -609.556705 Ry

     The total energy is the sum of the following terms:

     one-electron contribution =      33.64447264 Ry
     hartree contribution      =       7.79616214 Ry
     xc contribution           =     -37.47408140 Ry
     ewald contribution        =    -102.10650492 Ry
     one-center paw contrib.   =     -49.30397232 Ry
     smearing contrib. (-TS)   =       0.00000000 Ry

     convergence has been achieved in   7 iterations

     Forces acting on atoms (Ry/au):

     atom    1 type  1   force =     0.00000000    0.00000000    0.00398198
     atom    2 type  1   force =     0.00000000    0.00000000    0.00398460
     atom    3 type  1   force =     0.00000000    0.00000000    0.00398024
     atom    4 type  1   force =     0.00000000    0.00000000    0.00398024
     atom    5 type  1   force =     0.00000062    0.00000062   -0.00398606
     atom    6 type  1   force =    -0.00000062   -0.00000062   -0.00398606
     atom    7 type  1   force =    -0.00000023    0.00000023   -0.00397747
     atom    8 type  1   force =     0.00000023   -0.00000023   -0.00397747

     Total force =     0.011262     Total SCF correction =     0.000062


     entering subroutine stress ...

          total   stress  (Ry/bohr**3)                   (kbar)     P=  -41.13
  -0.00025001  -0.00151465   0.00000000        -36.78   -222.81      0.00
  -0.00151465  -0.00025001   0.00000000       -222.81    -36.78      0.00
   0.00000000   0.00000000  -0.00033869          0.00      0.00    -49.82


     Writing output data file template.save

     init_run     :      1.02s CPU      1.07s WALL (       1 calls)
     electrons    :     11.27s CPU     12.41s WALL (       1 calls)
     forces       :      0.64s CPU      0.65s WALL (       1 calls)
     stress       :      0.80s CPU      0.80s WALL (       1 calls)

     Called by init_run:
     wfcinit      :      0.44s CPU      0.46s WALL (       1 calls)
     potinit      :      0.37s CPU      0.39s WALL (       1 calls)

     Called by electrons:
     c_bands      :      7.20s CPU      7.90s WALL (       7 calls)
     sum_band     :      1.16s CPU      1.33s WALL (       7 calls)
     v_of_rho     :      0.20s CPU      0.22s WALL (       8 calls)
     newd         :      0.13s CPU      0.15s WALL (       8 calls)
     PAW_pot      :      2.87s CPU      3.09s WALL (       8 calls)
     mix_rho      :      0.03s CPU      0.03s WALL (       7 calls)

     Called by c_bands:
     init_us_2    :      0.09s CPU      0.10s WALL (     204 calls)
     cegterg      :      7.00s CPU      7.67s WALL (      84 calls)

     Called by sum_band:
     sum_band:bec :      0.00s CPU      0.02s WALL (      84 calls)
     addusdens    :      0.12s CPU      0.12s WALL (       7 calls)

     Called by *egterg:
     h_psi        :      4.88s CPU      5.46s WALL (     327 calls)
     s_psi        :      0.29s CPU      0.29s WALL (     327 calls)
     g_psi        :      0.01s CPU      0.02s WALL (     231 calls)
     cdiaghg      :      1.10s CPU      1.18s WALL (     315 calls)

     Called by h_psi:
     h_psi:pot    :      4.88s CPU      5.43s WALL (     327 calls)
     h_psi:calbec :      0.43s CPU      0.45s WALL (     327 calls)
     vloc_psi     :      4.19s CPU      4.66s WALL (     327 calls)
     add_vuspsi   :      0.25s CPU      0.32s WALL (     327 calls)

     General routines
     calbec       :      0.67s CPU      0.71s WALL (     471 calls)
     fft          :      0.18s CPU      0.21s WALL (     149 calls)
     ffts         :      0.01s CPU      0.01s WALL (      15 calls)
     fftw         :      4.63s CPU      5.18s WALL (   11444 calls)
     interpolate  :      0.02s CPU      0.03s WALL (      15 calls)
     davcio       :      0.00s CPU      0.00s WALL (      12 calls)

     Parallel routines
     fft_scatter  :      1.93s CPU      2.09s WALL (   11608 calls)

     PWSCF        :    14.02s CPU        15.33s WALL


   This run was terminated on:  12:51:55   9Jun2017            

=------------------------------------------------------------------------------=
   JOB DONE.
=------------------------------------------------------------------------------=
