
     Program PWSCF v.6.0 (svn rev. 13079) starts on  9Jun2017 at 12:50:44 

     This program is part of the open-source Quantum ESPRESSO suite
     for quantum simulation of materials; please cite
         "P. Giannozzi et al., J. Phys.:Condens. Matter 21 395502 (2009);
          URL http://www.quantum-espresso.org", 
     in publications or presentations arising from this work. More details at
     http://www.quantum-espresso.org/quote

     Parallel version (MPI), running on     4 processors
     R & G space division:  proc/nbgrp/npool/nimage =       4
     Waiting for input...
     Reading input from standard input
Warning: card &IONS ignored
Warning: card ION_DYNAMICS='BFGS', ignored
Warning: card / ignored
Warning: card &CELL ignored
Warning: card CELL_DYNAMICS='BFGS', ignored
Warning: card PRESS = 0.0, ignored
Warning: card CELL_FACTOR = 2.0, ignored
Warning: card / ignored

     Current dimensions of program PWSCF are:
     Max number of different atomic species (ntypx) = 10
     Max number of k-points (npk) =  40000
     Max angular momentum in pseudopotentials (lmaxx) =  3
               file C.pbe-n-kjpaw_psl.1.0.0.UPF: wavefunction(s)  2S 2P renormalized

     Subspace diagonalization in iterative solution of the eigenvalue problem:
     a serial algorithm will be used

     Found symmetry operation: I + ( -0.5000 -0.5000  0.0000)
     This is a supercell, fractional translations are disabled

     Parallelization info
     --------------------
     sticks:   dense  smooth     PW     G-vecs:    dense   smooth      PW
     Min         183     126     37                 3676     2146     348
     Max         184     127     38                 3677     2147     349
     Sum         733     507    149                14707     8587    1395



     bravais-lattice index     =            0
     lattice parameter (alat)  =       6.7508  a.u.
     unit-cell volume          =     307.6597 (a.u.)^3
     number of atoms/cell      =            8
     number of atomic types    =            1
     number of electrons       =        32.00
     number of Kohn-Sham states=           20
     kinetic-energy cutoff     =      35.0000  Ry
     charge density cutoff     =     200.0000  Ry
     convergence threshold     =      1.0E-06
     mixing beta               =       0.3000
     number of iterations used =           10  TF        mixing
     Exchange-correlation      =  SLA  PW   PBX  PBC ( 1  4  3  4 0 0)

     celldm(1)=   6.750826  celldm(2)=   0.000000  celldm(3)=   0.000000
     celldm(4)=   0.000000  celldm(5)=   0.000000  celldm(6)=   0.000000

     crystal axes: (cart. coord. in units of alat)
               a(1) = (   1.000000   0.006000   0.000000 )  
               a(2) = (   0.006000   1.000000   0.000000 )  
               a(3) = (   0.000000   0.000000   1.000036 )  

     reciprocal axes: (cart. coord. in units 2 pi/alat)
               b(1) = (  1.000036 -0.006000  0.000000 )  
               b(2) = ( -0.006000  1.000036  0.000000 )  
               b(3) = (  0.000000  0.000000  0.999964 )  


     PseudoPot. # 1 for  C read from file:
     /home/ben/espresso/pp/C.pbe-n-kjpaw_psl.1.0.0.UPF
     MD5 check sum: 151efd6a948e5eaef53e53bb29d01b27
     Pseudo is Projector augmented-wave + core cor, Zval =  4.0
     Generated using "atomic" code by A. Dal Corso  v.5.1
     Shape of augmentation charge: PSQ
     Using radial grid of 1073 points,  4 beta functions with: 
                l(1) =   0
                l(2) =   0
                l(3) =   1
                l(4) =   1
     Q(r) pseudized with 0 coefficients 


     atomic species   valence    mass     pseudopotential
        C              4.00    12.00000      C( 1.00)

      4 Sym. Ops. (no inversion) found



   Cartesian axes

     site n.     atom                  positions (alat units)
         1           C   tau(   1) = (   0.0000000   0.0000000   0.0000000  )
         2           C   tau(   2) = (   0.5030000   0.5030000   0.0000000  )
         3           C   tau(   3) = (   0.5000000   0.0030000   0.5000180  )
         4           C   tau(   4) = (   0.0030000   0.5000000   0.5000180  )
         5           C   tau(   5) = (   0.2515000   0.2515000   0.2500090  )
         6           C   tau(   6) = (   0.7545000   0.7545000   0.2500090  )
         7           C   tau(   7) = (   0.2545000   0.7515000   0.7500270  )
         8           C   tau(   8) = (   0.7515000   0.2545000   0.7500270  )

     number of k points=    12  Marzari-Vanderbilt smearing, width (Ry)=  0.0200
                       cart. coord. in units 2pi/alat
        k(    1) = (   0.1242545   0.1242545   0.1249955), wk =   0.1250000
        k(    2) = (   0.1242545   0.1242545   0.3749865), wk =   0.1250000
        k(    3) = (   0.1227544   0.3742635   0.1249955), wk =   0.2500000
        k(    4) = (   0.1227544   0.3742635   0.3749865), wk =   0.2500000
        k(    5) = (   0.1272546  -0.3757635   0.1249955), wk =   0.2500000
        k(    6) = (   0.1272546  -0.3757635   0.3749865), wk =   0.2500000
        k(    7) = (   0.1257545  -0.1257545   0.1249955), wk =   0.1250000
        k(    8) = (   0.1257545  -0.1257545   0.3749865), wk =   0.1250000
        k(    9) = (   0.3727634   0.3727634   0.1249955), wk =   0.1250000
        k(   10) = (   0.3727634   0.3727634   0.3749865), wk =   0.1250000
        k(   11) = (   0.3772636  -0.3772636   0.1249955), wk =   0.1250000
        k(   12) = (   0.3772636  -0.3772636   0.3749865), wk =   0.1250000

     Dense  grid:    14707 G-vectors     FFT dimensions: (  32,  32,  32)

     Smooth grid:     8587 G-vectors     FFT dimensions: (  25,  25,  25)

     Estimated max dynamical RAM per process >       4.45Mb

     Estimated total allocated dynamical RAM >      17.80Mb

     Check: negative/imaginary core charge=   -0.000073    0.000000

     Initial potential from superposition of free atoms

     starting charge   31.99967, renormalised to   32.00000
     Starting wfc are   32 randomized atomic wfcs
     Checking if some PAW data can be deallocated... 

     total cpu time spent up to now is        0.8 secs

     per-process dynamical memory:    17.1 Mb

     Self-consistent Calculation

     iteration #  1     ecut=    35.00 Ry     beta=0.30
     Davidson diagonalization with overlap
     ethr =  1.00E-02,  avg # of iterations =  2.9

     total cpu time spent up to now is        1.4 secs

     total energy              =    -147.54952336 Ry
     Harris-Foulkes estimate   =    -147.63077090 Ry
     estimated scf accuracy    <       0.46557051 Ry

     iteration #  2     ecut=    35.00 Ry     beta=0.30
     Davidson diagonalization with overlap
     ethr =  1.45E-03,  avg # of iterations =  1.0

     total cpu time spent up to now is        1.7 secs

     total energy              =    -147.42426648 Ry
     Harris-Foulkes estimate   =    -147.55252046 Ry
     estimated scf accuracy    <       0.27450759 Ry

     iteration #  3     ecut=    35.00 Ry     beta=0.30
     Davidson diagonalization with overlap
     ethr =  8.58E-04,  avg # of iterations =  2.6

     total cpu time spent up to now is        2.1 secs

     total energy              =    -147.45135832 Ry
     Harris-Foulkes estimate   =    -147.44824393 Ry
     estimated scf accuracy    <       0.00293605 Ry

     iteration #  4     ecut=    35.00 Ry     beta=0.30
     Davidson diagonalization with overlap
     ethr =  9.18E-06,  avg # of iterations =  7.8

     total cpu time spent up to now is        4.2 secs

     total energy              =    -147.45249237 Ry
     Harris-Foulkes estimate   =    -147.45223722 Ry
     estimated scf accuracy    <       0.00021435 Ry

     iteration #  5     ecut=    35.00 Ry     beta=0.30
     Davidson diagonalization with overlap
     ethr =  6.70E-07,  avg # of iterations =  2.0

     total cpu time spent up to now is        5.7 secs

     total energy              =    -147.45249132 Ry
     Harris-Foulkes estimate   =    -147.45253669 Ry
     estimated scf accuracy    <       0.00000878 Ry

     iteration #  6     ecut=    35.00 Ry     beta=0.30
     Davidson diagonalization with overlap
     ethr =  2.74E-08,  avg # of iterations =  2.1

     total cpu time spent up to now is        7.2 secs

     total energy              =    -147.45249902 Ry
     Harris-Foulkes estimate   =    -147.45249498 Ry
     estimated scf accuracy    <       0.00000571 Ry

     iteration #  7     ecut=    35.00 Ry     beta=0.30
     Davidson diagonalization with overlap
     ethr =  1.79E-08,  avg # of iterations =  2.0

     total cpu time spent up to now is        8.5 secs

     End of self-consistent calculation

          k = 0.1243 0.1243 0.1250 (  1082 PWs)   bands (ev):

    -7.7224  -1.1684  -1.1284  -1.1283   2.5758   2.5759   2.6047   5.8829
     5.9872   5.9873   7.3709   7.3710   7.4914  10.8178  12.6461  12.6519
    18.2473  18.2474  18.4205  19.6305

          k = 0.1243 0.1243 0.3750 (  1077 PWs)   bands (ev):

    -6.5839  -4.3532  -0.3848  -0.3846   2.0769   2.0770   4.9422   4.9423
     5.6902   6.9145   6.9145   8.0719   8.1126   8.5482  10.4922  11.2887
    18.4950  19.0980  20.8091  20.8092

          k = 0.1228 0.3743 0.1250 (  1077 PWs)   bands (ev):

    -6.5911  -4.3285  -0.4704  -0.3374   2.0541   2.1076   4.8775   4.9130
     5.7510   6.9651   7.0114   8.1073   8.1677   8.4277  10.4362  11.2420
    18.4240  19.1570  20.7810  21.0141

          k = 0.1228 0.3743 0.3750 (  1074 PWs)   bands (ev):

    -5.4738  -3.3168  -3.2792  -1.4198   1.7239   3.3824   3.4695   5.4664
     5.5205   7.0067   7.1014   8.9925   9.0737   9.1735   9.2285  11.4757
    20.1082  21.2344  21.3249  21.3450

          k = 0.1273-0.3758 0.1250 (  1078 PWs)   bands (ev):

    -6.5684  -4.3675  -0.5096  -0.3838   2.1538   2.2019   4.8742   4.9122
     5.7939   6.8983   6.9425   8.0331   8.2309   8.4584  10.3907  11.2599
    18.4733  19.0608  20.5910  20.8255

          k = 0.1273-0.3758 0.3750 (  1073 PWs)   bands (ev):

    -5.4500  -3.3229  -3.2867  -1.4973   1.7146   3.4377   3.5256   5.5904
     5.5964   6.9318   7.0252   8.8564   9.1060   9.1907   9.2517  11.4216
    20.1306  21.1340  21.2349  21.3732

          k = 0.1258-0.1258 0.1250 (  1079 PWs)   bands (ev):

    -7.7149  -1.1874  -1.1874  -1.1519   2.6346   2.6650   2.6650   5.9345
     5.9345   6.0407   7.2620   7.3812   7.3812  10.9216  12.6120  12.6131
    18.0663  18.2540  18.2540  19.5723

          k = 0.1258-0.1258 0.3750 (  1077 PWs)   bands (ev):

    -6.5762  -4.3444  -0.4631  -0.4631   2.1810   2.1810   4.8461   4.8461
     5.8538   6.9955   6.9955   8.0671   8.2881   8.3395  10.3373  11.2070
    18.3885  19.1128  20.7934  20.7935

          k = 0.3728 0.3728 0.1250 (  1073 PWs)   bands (ev):

    -5.4961  -3.2412  -3.2411  -1.5580   1.7435   3.4398   3.4398   5.5093
     5.5676   7.0036   7.0037   8.9189   9.1664   9.1977   9.1979  11.4699
    20.2906  21.1745  21.1746  21.5308

          k = 0.3728 0.3728 0.3750 (  1066 PWs)   bands (ev):

    -4.4198  -2.5124  -2.3826  -2.3825   0.7329   0.7544   0.7544   2.5895
     9.1012   9.1013   9.1910   9.7221   9.7222   9.8286  10.7982  10.8172
    20.8498  20.8499  20.9824  21.5544

          k = 0.3773-0.3773 0.1250 (  1077 PWs)   bands (ev):

    -5.4272  -3.3605  -3.3605  -1.3559   1.6907   3.4647   3.4647   5.5407
     5.5506   7.0283   7.0283   8.9283   9.0156   9.2267   9.2268  11.4312
    19.9535  21.2541  21.3005  21.3006

          k = 0.3773-0.3773 0.3750 (  1059 PWs)   bands (ev):

    -4.3449  -2.5258  -2.5258  -2.3976   0.7630   0.7630   0.7868   2.6723
     9.0844   9.1805   9.1805   9.7065   9.8117   9.8118  10.6950  10.7198
    20.7841  20.9189  20.9189  21.5340

     the Fermi energy is    14.5073 ev

!    total energy              =    -147.45250050 Ry
     Harris-Foulkes estimate   =    -147.45249978 Ry
     estimated scf accuracy    <       0.00000007 Ry

     total all-electron energy =      -609.565282 Ry

     The total energy is the sum of the following terms:

     one-electron contribution =      33.68004524 Ry
     hartree contribution      =       7.77671669 Ry
     xc contribution           =     -37.47137019 Ry
     ewald contribution        =    -102.13440079 Ry
     one-center paw contrib.   =     -49.30349146 Ry
     smearing contrib. (-TS)   =       0.00000000 Ry

     convergence has been achieved in   7 iterations

     Forces acting on atoms (Ry/au):

     atom    1 type  1   force =     0.00000000    0.00000000    0.00120452
     atom    2 type  1   force =     0.00000000    0.00000000    0.00120599
     atom    3 type  1   force =     0.00000000    0.00000000    0.00120422
     atom    4 type  1   force =     0.00000000    0.00000000    0.00120422
     atom    5 type  1   force =     0.00000061    0.00000061   -0.00120870
     atom    6 type  1   force =    -0.00000061   -0.00000061   -0.00120870
     atom    7 type  1   force =     0.00000050   -0.00000050   -0.00120078
     atom    8 type  1   force =    -0.00000050    0.00000050   -0.00120078

     Total force =     0.003408     Total SCF correction =     0.000073


     entering subroutine stress ...

          total   stress  (Ry/bohr**3)                   (kbar)     P=  -47.14
  -0.00031766  -0.00045285   0.00000000        -46.73    -66.62      0.00
  -0.00045285  -0.00031766   0.00000000        -66.62    -46.73      0.00
   0.00000000   0.00000000  -0.00032602          0.00      0.00    -47.96


     Writing output data file template.save

     init_run     :      0.48s CPU      0.51s WALL (       1 calls)
     electrons    :      7.40s CPU      7.74s WALL (       1 calls)
     forces       :      0.61s CPU      0.63s WALL (       1 calls)
     stress       :      1.12s CPU      1.22s WALL (       1 calls)

     Called by init_run:
     wfcinit      :      0.16s CPU      0.17s WALL (       1 calls)
     potinit      :      0.16s CPU      0.17s WALL (       1 calls)

     Called by electrons:
     c_bands      :      4.79s CPU      5.01s WALL (       7 calls)
     sum_band     :      0.66s CPU      0.69s WALL (       7 calls)
     v_of_rho     :      0.12s CPU      0.12s WALL (       8 calls)
     newd         :      0.06s CPU      0.08s WALL (       8 calls)
     PAW_pot      :      1.84s CPU      1.93s WALL (       8 calls)
     mix_rho      :      0.01s CPU      0.01s WALL (       7 calls)

     Called by c_bands:
     init_us_2    :      0.07s CPU      0.06s WALL (     204 calls)
     cegterg      :      4.68s CPU      4.88s WALL (      84 calls)

     Called by sum_band:
     sum_band:bec :      0.00s CPU      0.00s WALL (      84 calls)
     addusdens    :      0.08s CPU      0.08s WALL (       7 calls)

     Called by *egterg:
     h_psi        :      3.12s CPU      3.26s WALL (     341 calls)
     s_psi        :      0.18s CPU      0.18s WALL (     341 calls)
     g_psi        :      0.02s CPU      0.01s WALL (     245 calls)
     cdiaghg      :      0.81s CPU      0.87s WALL (     329 calls)

     Called by h_psi:
     h_psi:pot    :      3.11s CPU      3.25s WALL (     341 calls)
     h_psi:calbec :      0.23s CPU      0.25s WALL (     341 calls)
     vloc_psi     :      2.69s CPU      2.79s WALL (     341 calls)
     add_vuspsi   :      0.19s CPU      0.20s WALL (     341 calls)

     General routines
     calbec       :      0.38s CPU      0.42s WALL (     485 calls)
     fft          :      0.09s CPU      0.10s WALL (     149 calls)
     ffts         :      0.01s CPU      0.01s WALL (      15 calls)
     fftw         :      2.86s CPU      2.99s WALL (   11460 calls)
     interpolate  :      0.02s CPU      0.01s WALL (      15 calls)
     davcio       :      0.00s CPU      0.00s WALL (      12 calls)

     Parallel routines
     fft_scatter  :      0.90s CPU      0.91s WALL (   11624 calls)

     PWSCF        :     9.98s CPU        10.57s WALL


   This run was terminated on:  12:50:55   9Jun2017            

=------------------------------------------------------------------------------=
   JOB DONE.
=------------------------------------------------------------------------------=
