
     Program PWSCF v.6.0 (svn rev. 13079) starts on  9Jun2017 at 12:51: 9 

     This program is part of the open-source Quantum ESPRESSO suite
     for quantum simulation of materials; please cite
         "P. Giannozzi et al., J. Phys.:Condens. Matter 21 395502 (2009);
          URL http://www.quantum-espresso.org", 
     in publications or presentations arising from this work. More details at
     http://www.quantum-espresso.org/quote

     Parallel version (MPI), running on     4 processors
     R & G space division:  proc/nbgrp/npool/nimage =       4
     Waiting for input...
     Reading input from standard input
Warning: card &IONS ignored
Warning: card ION_DYNAMICS='BFGS', ignored
Warning: card / ignored
Warning: card &CELL ignored
Warning: card CELL_DYNAMICS='BFGS', ignored
Warning: card PRESS = 0.0, ignored
Warning: card CELL_FACTOR = 2.0, ignored
Warning: card / ignored

     Current dimensions of program PWSCF are:
     Max number of different atomic species (ntypx) = 10
     Max number of k-points (npk) =  40000
     Max angular momentum in pseudopotentials (lmaxx) =  3
               file C.pbe-n-kjpaw_psl.1.0.0.UPF: wavefunction(s)  2S 2P renormalized

     Subspace diagonalization in iterative solution of the eigenvalue problem:
     a serial algorithm will be used

     Found symmetry operation: I + ( -0.5000 -0.5000  0.0000)
     This is a supercell, fractional translations are disabled

     Parallelization info
     --------------------
     sticks:   dense  smooth     PW     G-vecs:    dense   smooth      PW
     Min         182     126     37                 3669     2146     351
     Max         184     127     39                 3670     2147     352
     Sum         733     507    151                14679     8587    1405



     bravais-lattice index     =            0
     lattice parameter (alat)  =       6.7508  a.u.
     unit-cell volume          =     307.6597 (a.u.)^3
     number of atoms/cell      =            8
     number of atomic types    =            1
     number of electrons       =        32.00
     number of Kohn-Sham states=           20
     kinetic-energy cutoff     =      35.0000  Ry
     charge density cutoff     =     200.0000  Ry
     convergence threshold     =      1.0E-06
     mixing beta               =       0.3000
     number of iterations used =           10  TF        mixing
     Exchange-correlation      =  SLA  PW   PBX  PBC ( 1  4  3  4 0 0)

     celldm(1)=   6.750826  celldm(2)=   0.000000  celldm(3)=   0.000000
     celldm(4)=   0.000000  celldm(5)=   0.000000  celldm(6)=   0.000000

     crystal axes: (cart. coord. in units of alat)
               a(1) = (   1.000000   0.012000   0.000000 )  
               a(2) = (   0.012000   1.000000   0.000000 )  
               a(3) = (   0.000000   0.000000   1.000144 )  

     reciprocal axes: (cart. coord. in units 2 pi/alat)
               b(1) = (  1.000144 -0.012002  0.000000 )  
               b(2) = ( -0.012002  1.000144  0.000000 )  
               b(3) = (  0.000000  0.000000  0.999856 )  


     PseudoPot. # 1 for  C read from file:
     /home/ben/espresso/pp/C.pbe-n-kjpaw_psl.1.0.0.UPF
     MD5 check sum: 151efd6a948e5eaef53e53bb29d01b27
     Pseudo is Projector augmented-wave + core cor, Zval =  4.0
     Generated using "atomic" code by A. Dal Corso  v.5.1
     Shape of augmentation charge: PSQ
     Using radial grid of 1073 points,  4 beta functions with: 
                l(1) =   0
                l(2) =   0
                l(3) =   1
                l(4) =   1
     Q(r) pseudized with 0 coefficients 


     atomic species   valence    mass     pseudopotential
        C              4.00    12.00000      C( 1.00)

      4 Sym. Ops. (no inversion) found



   Cartesian axes

     site n.     atom                  positions (alat units)
         1           C   tau(   1) = (   0.0000000   0.0000000   0.0000000  )
         2           C   tau(   2) = (   0.5060000   0.5060000   0.0000000  )
         3           C   tau(   3) = (   0.5000000   0.0060000   0.5000720  )
         4           C   tau(   4) = (   0.0060000   0.5000000   0.5000720  )
         5           C   tau(   5) = (   0.2530000   0.2530000   0.2500360  )
         6           C   tau(   6) = (   0.7590000   0.7590000   0.2500360  )
         7           C   tau(   7) = (   0.2590000   0.7530000   0.7501080  )
         8           C   tau(   8) = (   0.7530000   0.2590000   0.7501080  )

     number of k points=    12  Marzari-Vanderbilt smearing, width (Ry)=  0.0200
                       cart. coord. in units 2pi/alat
        k(    1) = (   0.1235178   0.1235178   0.1249820), wk =   0.1250000
        k(    2) = (   0.1235178   0.1235178   0.3749460), wk =   0.1250000
        k(    3) = (   0.1205174   0.3735538   0.1249820), wk =   0.2500000
        k(    4) = (   0.1205174   0.3735538   0.3749460), wk =   0.2500000
        k(    5) = (   0.1295187  -0.3765542   0.1249820), wk =   0.2500000
        k(    6) = (   0.1295187  -0.3765542   0.3749460), wk =   0.2500000
        k(    7) = (   0.1265182  -0.1265182   0.1249820), wk =   0.1250000
        k(    8) = (   0.1265182  -0.1265182   0.3749460), wk =   0.1250000
        k(    9) = (   0.3705534   0.3705534   0.1249820), wk =   0.1250000
        k(   10) = (   0.3705534   0.3705534   0.3749460), wk =   0.1250000
        k(   11) = (   0.3795547  -0.3795547   0.1249820), wk =   0.1250000
        k(   12) = (   0.3795547  -0.3795547   0.3749460), wk =   0.1250000

     Dense  grid:    14679 G-vectors     FFT dimensions: (  32,  32,  32)

     Smooth grid:     8587 G-vectors     FFT dimensions: (  25,  25,  25)

     Estimated max dynamical RAM per process >       4.45Mb

     Estimated total allocated dynamical RAM >      17.79Mb

     Check: negative/imaginary core charge=   -0.000075    0.000000

     Initial potential from superposition of free atoms

     starting charge   31.99967, renormalised to   32.00000
     Starting wfc are   32 randomized atomic wfcs
     Checking if some PAW data can be deallocated... 

     total cpu time spent up to now is        0.8 secs

     per-process dynamical memory:    17.1 Mb

     Self-consistent Calculation

     iteration #  1     ecut=    35.00 Ry     beta=0.30
     Davidson diagonalization with overlap
     ethr =  1.00E-02,  avg # of iterations =  2.4

     total cpu time spent up to now is        1.3 secs

     total energy              =    -147.54720719 Ry
     Harris-Foulkes estimate   =    -147.62863676 Ry
     estimated scf accuracy    <       0.46631406 Ry

     iteration #  2     ecut=    35.00 Ry     beta=0.30
     Davidson diagonalization with overlap
     ethr =  1.46E-03,  avg # of iterations =  1.0

     total cpu time spent up to now is        1.6 secs

     total energy              =    -147.42164693 Ry
     Harris-Foulkes estimate   =    -147.55022229 Ry
     estimated scf accuracy    <       0.27492833 Ry

     iteration #  3     ecut=    35.00 Ry     beta=0.30
     Davidson diagonalization with overlap
     ethr =  8.59E-04,  avg # of iterations =  2.4

     total cpu time spent up to now is        2.1 secs

     total energy              =    -147.44882110 Ry
     Harris-Foulkes estimate   =    -147.44571108 Ry
     estimated scf accuracy    <       0.00294684 Ry

     iteration #  4     ecut=    35.00 Ry     beta=0.30
     Davidson diagonalization with overlap
     ethr =  9.21E-06,  avg # of iterations =  7.5

     total cpu time spent up to now is        2.8 secs

     total energy              =    -147.44995975 Ry
     Harris-Foulkes estimate   =    -147.44969862 Ry
     estimated scf accuracy    <       0.00021709 Ry

     iteration #  5     ecut=    35.00 Ry     beta=0.30
     Davidson diagonalization with overlap
     ethr =  6.78E-07,  avg # of iterations =  2.0

     total cpu time spent up to now is        3.3 secs

     total energy              =    -147.44995895 Ry
     Harris-Foulkes estimate   =    -147.45000444 Ry
     estimated scf accuracy    <       0.00000938 Ry

     iteration #  6     ecut=    35.00 Ry     beta=0.30
     Davidson diagonalization with overlap
     ethr =  2.93E-08,  avg # of iterations =  2.2

     total cpu time spent up to now is        3.8 secs

     total energy              =    -147.44996688 Ry
     Harris-Foulkes estimate   =    -147.44996225 Ry
     estimated scf accuracy    <       0.00000498 Ry

     iteration #  7     ecut=    35.00 Ry     beta=0.30
     Davidson diagonalization with overlap
     ethr =  1.56E-08,  avg # of iterations =  2.0

     total cpu time spent up to now is        4.5 secs

     End of self-consistent calculation

          k = 0.1235 0.1235 0.1250 (  1080 PWs)   bands (ev):

    -7.7276  -1.1843  -1.0994  -1.0993   2.5318   2.5319   2.5880   5.8087
     6.0158   6.0158   7.3678   7.3678   7.6094  10.7665  12.6579  12.6742
    18.2439  18.2440  18.5588  19.5104

          k = 0.1235 0.1235 0.3749 (  1084 PWs)   bands (ev):

    -6.5897  -4.3611  -0.3468  -0.3467   2.0267   2.0267   4.9917   4.9918
     5.6045   6.8779   6.8780   8.0221   8.0716   8.6538  10.5691  11.3205
    18.5236  19.0740  20.8135  20.8135

          k = 0.1205 0.3736 0.1250 (  1077 PWs)   bands (ev):

    -6.6036  -4.3099  -0.5240  -0.2513   1.9791   2.0907   4.8628   4.9311
     5.7285   6.9770   7.0734   8.1326   8.1446   8.4168  10.4557  11.2361
    18.3998  19.1977  20.7609  21.2255

          k = 0.1205 0.3736 0.3749 (  1071 PWs)   bands (ev):

    -5.4876  -3.3354  -3.2591  -1.3855   1.7325   3.3134   3.4861   5.4016
     5.4876   6.9965   7.1887   9.0589   9.0638   9.1406   9.2449  11.5002
    20.0953  21.2255  21.2522  21.3943

          k = 0.1295-0.3766 0.1250 (  1077 PWs)   bands (ev):

    -6.5583  -4.3878  -0.5955  -0.3515   2.1840   2.2745   4.8535   4.9324
     5.8144   6.8451   6.9297   7.9983   8.2610   8.4749  10.3659  11.2728
    18.4973  19.0063  20.3823  20.8494

          k = 0.1295-0.3766 0.3749 (  1075 PWs)   bands (ev):

    -5.4399  -3.3465  -3.2753  -1.5403   1.7134   3.4226   3.5996   5.6286
     5.6621   6.8482   7.0333   8.7893   9.1232   9.1674   9.2936  11.3940
    20.1400  21.0149  21.2227  21.2995

          k = 0.1265-0.1265 0.1250 (  1076 PWs)   bands (ev):

    -7.7126  -1.2171  -1.2171  -1.1512   2.6478   2.7097   2.7097   5.9092
     5.9092   6.1234   7.1520   7.3888   7.3888  10.9681  12.5917  12.5939
    17.8753  18.2571  18.2571  19.4222

          k = 0.1265-0.1265 0.3749 (  1078 PWs)   bands (ev):

    -6.5743  -4.3433  -0.5037  -0.5037   2.2340   2.2340   4.7988   4.7988
     5.9326   7.0398   7.0398   8.0646   8.2384   8.3766  10.2632  11.1583
    18.3154  19.1053  20.7811  20.7811

          k = 0.3706 0.3706 0.1250 (  1075 PWs)   bands (ev):

    -5.5317  -3.1821  -3.1820  -1.6588   1.7668   3.4241   3.4241   5.4863
     5.5784   6.9912   6.9912   8.9119   9.1880   9.1881   9.2432  11.4948
    20.4645  21.1122  21.1122  21.6720

          k = 0.3706 0.3706 0.3749 (  1061 PWs)   bands (ev):

    -4.4590  -2.5735  -2.3120  -2.3119   0.7086   0.7498   0.7498   2.5485
     9.0640   9.0641   9.2407   9.6791   9.6791   9.8951  10.8478  10.8746
    20.8058  20.8059  21.0652  21.4267

          k = 0.3796-0.3796 0.1250 (  1078 PWs)   bands (ev):

    -5.3938  -3.4206  -3.4206  -1.2545   1.6612   3.4739   3.4739   5.5259
     5.5677   7.0403   7.0403   8.9317   8.9475   9.2464   9.2465  11.4109
    19.7917  21.1162  21.3644  21.3644

          k = 0.3796-0.3796 0.3749 (  1058 PWs)   bands (ev):

    -4.3093  -2.5984  -2.5984  -2.3441   0.7666   0.7666   0.8164   2.7141
     9.0290   9.2215   9.2216   9.6499   9.8571   9.8571  10.6304  10.6851
    20.6741  20.9414  20.9414  21.4136

     the Fermi energy is    14.5943 ev

!    total energy              =    -147.44996825 Ry
     Harris-Foulkes estimate   =    -147.44996755 Ry
     estimated scf accuracy    <       0.00000008 Ry

     total all-electron energy =      -609.562750 Ry

     The total energy is the sum of the following terms:

     one-electron contribution =      33.66948707 Ry
     hartree contribution      =       7.78249030 Ry
     xc contribution           =     -37.47218654 Ry
     ewald contribution        =    -102.12612526 Ry
     one-center paw contrib.   =     -49.30363383 Ry
     smearing contrib. (-TS)   =       0.00000000 Ry

     convergence has been achieved in   7 iterations

     Forces acting on atoms (Ry/au):

     atom    1 type  1   force =     0.00000000    0.00000000    0.00233577
     atom    2 type  1   force =     0.00000000    0.00000000    0.00233559
     atom    3 type  1   force =     0.00000000    0.00000000    0.00233232
     atom    4 type  1   force =     0.00000000    0.00000000    0.00233232
     atom    5 type  1   force =    -0.00000046   -0.00000046   -0.00233730
     atom    6 type  1   force =     0.00000046    0.00000046   -0.00233730
     atom    7 type  1   force =    -0.00000040    0.00000040   -0.00233071
     atom    8 type  1   force =     0.00000040   -0.00000040   -0.00233071

     Total force =     0.006602     Total SCF correction =     0.000060


     entering subroutine stress ...

          total   stress  (Ry/bohr**3)                   (kbar)     P=  -45.35
  -0.00029673  -0.00090748   0.00000000        -43.65   -133.50      0.00
  -0.00090748  -0.00029673   0.00000000       -133.50    -43.65      0.00
   0.00000000   0.00000000  -0.00033148          0.00      0.00    -48.76


     Writing output data file template.save

     init_run     :      0.47s CPU      0.50s WALL (       1 calls)
     electrons    :      3.63s CPU      3.72s WALL (       1 calls)
     forces       :      0.59s CPU      0.61s WALL (       1 calls)
     stress       :      1.15s CPU      1.17s WALL (       1 calls)

     Called by init_run:
     wfcinit      :      0.14s CPU      0.16s WALL (       1 calls)
     potinit      :      0.16s CPU      0.17s WALL (       1 calls)

     Called by electrons:
     c_bands      :      2.04s CPU      2.09s WALL (       7 calls)
     sum_band     :      0.36s CPU      0.37s WALL (       7 calls)
     v_of_rho     :      0.08s CPU      0.08s WALL (       8 calls)
     newd         :      0.04s CPU      0.06s WALL (       8 calls)
     PAW_pot      :      1.18s CPU      1.22s WALL (       8 calls)
     mix_rho      :      0.01s CPU      0.01s WALL (       7 calls)

     Called by c_bands:
     init_us_2    :      0.03s CPU      0.04s WALL (     204 calls)
     cegterg      :      1.98s CPU      2.03s WALL (      84 calls)

     Called by sum_band:
     sum_band:bec :      0.00s CPU      0.00s WALL (      84 calls)
     addusdens    :      0.06s CPU      0.05s WALL (       7 calls)

     Called by *egterg:
     h_psi        :      1.38s CPU      1.45s WALL (     330 calls)
     s_psi        :      0.07s CPU      0.07s WALL (     330 calls)
     g_psi        :      0.00s CPU      0.01s WALL (     234 calls)
     cdiaghg      :      0.31s CPU      0.33s WALL (     318 calls)

     Called by h_psi:
     h_psi:pot    :      1.37s CPU      1.45s WALL (     330 calls)
     h_psi:calbec :      0.10s CPU      0.11s WALL (     330 calls)
     vloc_psi     :      1.20s CPU      1.26s WALL (     330 calls)
     add_vuspsi   :      0.06s CPU      0.08s WALL (     330 calls)

     General routines
     calbec       :      0.22s CPU      0.26s WALL (     474 calls)
     fft          :      0.10s CPU      0.08s WALL (     149 calls)
     ffts         :      0.01s CPU      0.01s WALL (      15 calls)
     fftw         :      1.34s CPU      1.39s WALL (   11452 calls)
     interpolate  :      0.02s CPU      0.01s WALL (      15 calls)
     davcio       :      0.00s CPU      0.00s WALL (      12 calls)

     Parallel routines
     fft_scatter  :      0.46s CPU      0.45s WALL (   11616 calls)

     PWSCF        :     6.23s CPU         6.48s WALL


   This run was terminated on:  12:51:16   9Jun2017            

=------------------------------------------------------------------------------=
   JOB DONE.
=------------------------------------------------------------------------------=
