
     Program PWSCF v.6.0 (svn rev. 13079) starts on  9Jun2017 at 12:50:34 

     This program is part of the open-source Quantum ESPRESSO suite
     for quantum simulation of materials; please cite
         "P. Giannozzi et al., J. Phys.:Condens. Matter 21 395502 (2009);
          URL http://www.quantum-espresso.org", 
     in publications or presentations arising from this work. More details at
     http://www.quantum-espresso.org/quote

     Parallel version (MPI), running on     4 processors
     R & G space division:  proc/nbgrp/npool/nimage =       4
     Waiting for input...
     Reading input from standard input
Warning: card &IONS ignored
Warning: card ION_DYNAMICS='BFGS', ignored
Warning: card / ignored
Warning: card &CELL ignored
Warning: card CELL_DYNAMICS='BFGS', ignored
Warning: card PRESS = 0.0, ignored
Warning: card CELL_FACTOR = 2.0, ignored
Warning: card / ignored

     Current dimensions of program PWSCF are:
     Max number of different atomic species (ntypx) = 10
     Max number of k-points (npk) =  40000
     Max angular momentum in pseudopotentials (lmaxx) =  3
               file C.pbe-n-kjpaw_psl.1.0.0.UPF: wavefunction(s)  2S 2P renormalized

     Subspace diagonalization in iterative solution of the eigenvalue problem:
     a serial algorithm will be used

     Found symmetry operation: I + ( -0.5000 -0.5000  0.0000)
     This is a supercell, fractional translations are disabled

     Parallelization info
     --------------------
     sticks:   dense  smooth     PW     G-vecs:    dense   smooth      PW
     Min         181     126     37                 3689     2155     350
     Max         182     127     38                 3692     2157     351
     Sum         725     507    149                14763     8623    1403



     bravais-lattice index     =            0
     lattice parameter (alat)  =       6.7508  a.u.
     unit-cell volume          =     307.6597 (a.u.)^3
     number of atoms/cell      =            8
     number of atomic types    =            1
     number of electrons       =        32.00
     number of Kohn-Sham states=           20
     kinetic-energy cutoff     =      35.0000  Ry
     charge density cutoff     =     200.0000  Ry
     convergence threshold     =      1.0E-06
     mixing beta               =       0.3000
     number of iterations used =           10  TF        mixing
     Exchange-correlation      =  SLA  PW   PBX  PBC ( 1  4  3  4 0 0)

     celldm(1)=   6.750826  celldm(2)=   0.000000  celldm(3)=   0.000000
     celldm(4)=   0.000000  celldm(5)=   0.000000  celldm(6)=   0.000000

     crystal axes: (cart. coord. in units of alat)
               a(1) = (   1.000000   0.002000   0.000000 )  
               a(2) = (   0.002000   1.000000   0.000000 )  
               a(3) = (   0.000000   0.000000   1.000004 )  

     reciprocal axes: (cart. coord. in units 2 pi/alat)
               b(1) = (  1.000004 -0.002000  0.000000 )  
               b(2) = ( -0.002000  1.000004  0.000000 )  
               b(3) = (  0.000000  0.000000  0.999996 )  


     PseudoPot. # 1 for  C read from file:
     /home/ben/espresso/pp/C.pbe-n-kjpaw_psl.1.0.0.UPF
     MD5 check sum: 151efd6a948e5eaef53e53bb29d01b27
     Pseudo is Projector augmented-wave + core cor, Zval =  4.0
     Generated using "atomic" code by A. Dal Corso  v.5.1
     Shape of augmentation charge: PSQ
     Using radial grid of 1073 points,  4 beta functions with: 
                l(1) =   0
                l(2) =   0
                l(3) =   1
                l(4) =   1
     Q(r) pseudized with 0 coefficients 


     atomic species   valence    mass     pseudopotential
        C              4.00    12.00000      C( 1.00)

      4 Sym. Ops. (no inversion) found



   Cartesian axes

     site n.     atom                  positions (alat units)
         1           C   tau(   1) = (   0.0000000   0.0000000   0.0000000  )
         2           C   tau(   2) = (   0.5010000   0.5010000   0.0000000  )
         3           C   tau(   3) = (   0.5000000   0.0010000   0.5000020  )
         4           C   tau(   4) = (   0.0010000   0.5000000   0.5000020  )
         5           C   tau(   5) = (   0.2505000   0.2505000   0.2500010  )
         6           C   tau(   6) = (   0.7515000   0.7515000   0.2500010  )
         7           C   tau(   7) = (   0.2515000   0.7505000   0.7500030  )
         8           C   tau(   8) = (   0.7505000   0.2515000   0.7500030  )

     number of k points=    12  Marzari-Vanderbilt smearing, width (Ry)=  0.0200
                       cart. coord. in units 2pi/alat
        k(    1) = (   0.1247505   0.1247505   0.1249995), wk =   0.1250000
        k(    2) = (   0.1247505   0.1247505   0.3749985), wk =   0.1250000
        k(    3) = (   0.1242505   0.3747515   0.1249995), wk =   0.2500000
        k(    4) = (   0.1242505   0.3747515   0.3749985), wk =   0.2500000
        k(    5) = (   0.1257505  -0.3752515   0.1249995), wk =   0.2500000
        k(    6) = (   0.1257505  -0.3752515   0.3749985), wk =   0.2500000
        k(    7) = (   0.1252505  -0.1252505   0.1249995), wk =   0.1250000
        k(    8) = (   0.1252505  -0.1252505   0.3749985), wk =   0.1250000
        k(    9) = (   0.3742515   0.3742515   0.1249995), wk =   0.1250000
        k(   10) = (   0.3742515   0.3742515   0.3749985), wk =   0.1250000
        k(   11) = (   0.3757515  -0.3757515   0.1249995), wk =   0.1250000
        k(   12) = (   0.3757515  -0.3757515   0.3749985), wk =   0.1250000

     Dense  grid:    14763 G-vectors     FFT dimensions: (  32,  32,  32)

     Smooth grid:     8623 G-vectors     FFT dimensions: (  25,  25,  25)

     Estimated max dynamical RAM per process >       4.46Mb

     Estimated total allocated dynamical RAM >      17.82Mb

     Check: negative/imaginary core charge=   -0.000073    0.000000

     Initial potential from superposition of free atoms

     starting charge   31.99967, renormalised to   32.00000
     Starting wfc are   32 randomized atomic wfcs
     Checking if some PAW data can be deallocated... 

     total cpu time spent up to now is        0.8 secs

     per-process dynamical memory:    17.1 Mb

     Self-consistent Calculation

     iteration #  1     ecut=    35.00 Ry     beta=0.30
     Davidson diagonalization with overlap
     ethr =  1.00E-02,  avg # of iterations =  2.3

     total cpu time spent up to now is        1.3 secs

     total energy              =    -147.55033126 Ry
     Harris-Foulkes estimate   =    -147.63150385 Ry
     estimated scf accuracy    <       0.46526728 Ry

     iteration #  2     ecut=    35.00 Ry     beta=0.30
     Davidson diagonalization with overlap
     ethr =  1.45E-03,  avg # of iterations =  1.0

     total cpu time spent up to now is        1.7 secs

     total energy              =    -147.42515762 Ry
     Harris-Foulkes estimate   =    -147.55331468 Ry
     estimated scf accuracy    <       0.27436205 Ry

     iteration #  3     ecut=    35.00 Ry     beta=0.30
     Davidson diagonalization with overlap
     ethr =  8.57E-04,  avg # of iterations =  2.9

     total cpu time spent up to now is        2.1 secs

     total energy              =    -147.45227352 Ry
     Harris-Foulkes estimate   =    -147.44914474 Ry
     estimated scf accuracy    <       0.00293773 Ry

     iteration #  4     ecut=    35.00 Ry     beta=0.30
     Davidson diagonalization with overlap
     ethr =  9.18E-06,  avg # of iterations =  8.0

     total cpu time spent up to now is        2.9 secs

     total energy              =    -147.45335191 Ry
     Harris-Foulkes estimate   =    -147.45310297 Ry
     estimated scf accuracy    <       0.00019343 Ry

     iteration #  5     ecut=    35.00 Ry     beta=0.30
     Davidson diagonalization with overlap
     ethr =  6.04E-07,  avg # of iterations =  2.0

     total cpu time spent up to now is        3.3 secs

     total energy              =    -147.45335006 Ry
     Harris-Foulkes estimate   =    -147.45339245 Ry
     estimated scf accuracy    <       0.00000810 Ry

     iteration #  6     ecut=    35.00 Ry     beta=0.30
     Davidson diagonalization with overlap
     ethr =  2.53E-08,  avg # of iterations =  2.2

     total cpu time spent up to now is        3.8 secs

     total energy              =    -147.45335675 Ry
     Harris-Foulkes estimate   =    -147.45335367 Ry
     estimated scf accuracy    <       0.00000542 Ry

     iteration #  7     ecut=    35.00 Ry     beta=0.30
     Davidson diagonalization with overlap
     ethr =  1.69E-08,  avg # of iterations =  2.0

     total cpu time spent up to now is        4.3 secs

     End of self-consistent calculation

          k = 0.1248 0.1248 0.1250 (  1082 PWs)   bands (ev):

    -7.7195  -1.1607  -1.1479  -1.1478   2.6053   2.6054   2.6152   5.9356
     5.9705   5.9706   7.3725   7.3726   7.4135  10.8510  12.6365  12.6379
    18.2499  18.2499  18.3102  19.6971

          k = 0.1248 0.1248 0.3750 (  1077 PWs)   bands (ev):

    -6.5807  -4.3493  -0.4105  -0.4104   2.1111   2.1112   4.9098   4.9100
     5.7455   6.9405   6.9406   8.0706   8.1711   8.4757  10.4412  11.2640
    18.4658  19.1078  20.8051  20.8052

          k = 0.1243 0.3748 0.1250 (  1078 PWs)   bands (ev):

    -6.5832  -4.3413  -0.4384  -0.3948   2.1037   2.1210   4.8881   4.9002
     5.7657   6.9576   6.9727   8.0824   8.1898   8.4364  10.4216  11.2474
    18.4408  19.1263  20.7953  20.8731

          k = 0.1243 0.3748 0.3750 (  1075 PWs)   bands (ev):

    -5.4653  -3.3057  -3.2933  -1.4443   1.7197   3.4293   3.4584   5.5098
     5.5432   7.0129   7.0443   8.9468   9.0833   9.1976   9.2166  11.4580
    20.1161  21.2368  21.2683  21.3833

          k = 0.1258-0.3753 0.1250 (  1076 PWs)   bands (ev):

    -6.5756  -4.3542  -0.4522  -0.4094   2.1363   2.1530   4.8876   4.9000
     5.7801   6.9355   6.9502   8.0575   8.2107   8.4464  10.4065  11.2540
    18.4569  19.0945  20.7323  20.8101

          k = 0.1258-0.3753 0.3750 (  1074 PWs)   bands (ev):

    -5.4574  -3.3078  -3.2956  -1.4702   1.7165   3.4479   3.4774   5.5529
     5.5664   6.9879   7.0192   8.9014   9.0934   9.2039   9.2244  11.4398
    20.1235  21.2041  21.2383  21.3932

          k = 0.1253-0.1253 0.1250 (  1082 PWs)   bands (ev):

    -7.7170  -1.1675  -1.1674  -1.1551   2.6251   2.6350   2.6351   5.9523
     5.9524   5.9875   7.3365   7.3760   7.3760  10.8878  12.6246  12.6255
    18.1905  18.2520  18.2520  19.6736

          k = 0.1253-0.1253 0.3750 (  1077 PWs)   bands (ev):

    -6.5781  -4.3464  -0.4367  -0.4366   2.1458   2.1458   4.8780   4.8781
     5.8001   6.9676   6.9676   8.0691   8.2295   8.4071  10.3873  11.2365
    18.4303  19.1123  20.7999  20.7999

          k = 0.3743 0.3743 0.1250 (  1075 PWs)   bands (ev):

    -5.4728  -3.2807  -3.2807  -1.4908   1.7267   3.4487   3.4487   5.5245
     5.5593   7.0118   7.0119   8.9224   9.1155   9.2057   9.2059  11.4556
    20.1768  21.2161  21.2162  21.4383

          k = 0.3743 0.3743 0.3750 (  1062 PWs)   bands (ev):

    -4.3942  -2.4730  -2.4299  -2.4298   0.7501   0.7575   0.7575   2.6170
     9.1261   9.1263   9.1568   9.7512   9.7513   9.7866  10.7708  10.7780
    20.8759  20.8760  20.9206  21.6286

          k = 0.3758-0.3758 0.1250 (  1075 PWs)   bands (ev):

    -5.4498  -3.3207  -3.3206  -1.4234   1.7092   3.4571   3.4572   5.5379
     5.5503   7.0201   7.0201   8.9255   9.0643   9.2159   9.2160  11.4426
    20.0642  21.2588  21.2589  21.3458

          k = 0.3758-0.3758 0.3750 (  1062 PWs)   bands (ev):

    -4.3693  -2.4776  -2.4775  -2.4347   0.7604   0.7604   0.7680   2.6446
     9.1204   9.1518   9.1519   9.7458   9.7811   9.7812  10.7369  10.7446
    20.8539  20.8989  20.8990  21.6158

     the Fermi energy is    14.5637 ev

!    total energy              =    -147.45335821 Ry
     Harris-Foulkes estimate   =    -147.45335746 Ry
     estimated scf accuracy    <       0.00000006 Ry

     total all-electron energy =      -609.566140 Ry

     The total energy is the sum of the following terms:

     one-electron contribution =      33.68304072 Ry
     hartree contribution      =       7.77504545 Ry
     xc contribution           =     -37.47114908 Ry
     ewald contribution        =    -102.13685259 Ry
     one-center paw contrib.   =     -49.30344271 Ry
     smearing contrib. (-TS)   =       0.00000000 Ry

     convergence has been achieved in   7 iterations

     Forces acting on atoms (Ry/au):

     atom    1 type  1   force =     0.00000000    0.00000000    0.00039688
     atom    2 type  1   force =     0.00000000    0.00000000    0.00039862
     atom    3 type  1   force =     0.00000000    0.00000000    0.00039497
     atom    4 type  1   force =     0.00000000    0.00000000    0.00039497
     atom    5 type  1   force =    -0.00000099   -0.00000099   -0.00040123
     atom    6 type  1   force =     0.00000099    0.00000099   -0.00040123
     atom    7 type  1   force =    -0.00000112    0.00000112   -0.00039149
     atom    8 type  1   force =     0.00000112   -0.00000112   -0.00039149

     Total force =     0.001121     Total SCF correction =     0.000087


     entering subroutine stress ...

          total   stress  (Ry/bohr**3)                   (kbar)     P=  -47.49
  -0.00032324  -0.00015036   0.00000000        -47.55    -22.12      0.00
  -0.00015036  -0.00032324   0.00000000        -22.12    -47.55      0.00
   0.00000000   0.00000000  -0.00032192          0.00      0.00    -47.36


     Writing output data file template.save

     init_run     :      0.48s CPU      0.52s WALL (       1 calls)
     electrons    :      3.36s CPU      3.44s WALL (       1 calls)
     forces       :      0.20s CPU      0.20s WALL (       1 calls)
     stress       :      0.38s CPU      0.39s WALL (       1 calls)

     Called by init_run:
     wfcinit      :      0.15s CPU      0.16s WALL (       1 calls)
     potinit      :      0.16s CPU      0.17s WALL (       1 calls)

     Called by electrons:
     c_bands      :      2.06s CPU      2.12s WALL (       7 calls)
     sum_band     :      0.31s CPU      0.33s WALL (       7 calls)
     v_of_rho     :      0.06s CPU      0.06s WALL (       8 calls)
     newd         :      0.04s CPU      0.05s WALL (       8 calls)
     PAW_pot      :      0.98s CPU      1.00s WALL (       8 calls)
     mix_rho      :      0.01s CPU      0.01s WALL (       7 calls)

     Called by c_bands:
     init_us_2    :      0.04s CPU      0.03s WALL (     204 calls)
     cegterg      :      2.02s CPU      2.06s WALL (      84 calls)

     Called by sum_band:
     sum_band:bec :      0.00s CPU      0.00s WALL (      84 calls)
     addusdens    :      0.03s CPU      0.04s WALL (       7 calls)

     Called by *egterg:
     h_psi        :      1.44s CPU      1.45s WALL (     341 calls)
     s_psi        :      0.07s CPU      0.08s WALL (     341 calls)
     g_psi        :      0.00s CPU      0.01s WALL (     245 calls)
     cdiaghg      :      0.31s CPU      0.35s WALL (     329 calls)

     Called by h_psi:
     h_psi:pot    :      1.43s CPU      1.45s WALL (     341 calls)
     h_psi:calbec :      0.14s CPU      0.12s WALL (     341 calls)
     vloc_psi     :      1.19s CPU      1.25s WALL (     341 calls)
     add_vuspsi   :      0.11s CPU      0.08s WALL (     341 calls)

     General routines
     calbec       :      0.21s CPU      0.19s WALL (     485 calls)
     fft          :      0.05s CPU      0.05s WALL (     149 calls)
     ffts         :      0.00s CPU      0.00s WALL (      15 calls)
     fftw         :      1.27s CPU      1.35s WALL (   11456 calls)
     interpolate  :      0.02s CPU      0.01s WALL (      15 calls)
     davcio       :      0.00s CPU      0.00s WALL (      12 calls)

     Parallel routines
     fft_scatter  :      0.31s CPU      0.39s WALL (   11620 calls)

     PWSCF        :     4.71s CPU         4.93s WALL


   This run was terminated on:  12:50:39   9Jun2017            

=------------------------------------------------------------------------------=
   JOB DONE.
=------------------------------------------------------------------------------=
