
     Program PWSCF v.6.0 (svn rev. 13079) starts on  9Jun2017 at 12:47:53 

     This program is part of the open-source Quantum ESPRESSO suite
     for quantum simulation of materials; please cite
         "P. Giannozzi et al., J. Phys.:Condens. Matter 21 395502 (2009);
          URL http://www.quantum-espresso.org", 
     in publications or presentations arising from this work. More details at
     http://www.quantum-espresso.org/quote

     Parallel version (MPI), running on     4 processors
     R & G space division:  proc/nbgrp/npool/nimage =       4
     Waiting for input...
     Reading input from standard input
Warning: card &IONS ignored
Warning: card ION_DYNAMICS='BFGS', ignored
Warning: card / ignored
Warning: card &CELL ignored
Warning: card CELL_DYNAMICS='BFGS', ignored
Warning: card PRESS = 0.0, ignored
Warning: card CELL_FACTOR = 2.0, ignored
Warning: card / ignored

     Current dimensions of program PWSCF are:
     Max number of different atomic species (ntypx) = 10
     Max number of k-points (npk) =  40000
     Max angular momentum in pseudopotentials (lmaxx) =  3
               file C.pbe-n-kjpaw_psl.1.0.0.UPF: wavefunction(s)  2S 2P renormalized

     Subspace diagonalization in iterative solution of the eigenvalue problem:
     a serial algorithm will be used

     Found symmetry operation: I + ( -0.5000 -0.5000  0.0000)
     This is a supercell, fractional translations are disabled

     Parallelization info
     --------------------
     sticks:   dense  smooth     PW     G-vecs:    dense   smooth      PW
     Min         181     126     36                 3691     2150     354
     Max         182     127     38                 3694     2151     357
     Sum         725     505    149                14771     8601    1419



     bravais-lattice index     =            0
     lattice parameter (alat)  =       6.7508  a.u.
     unit-cell volume          =     307.6597 (a.u.)^3
     number of atoms/cell      =            8
     number of atomic types    =            1
     number of electrons       =        32.00
     number of Kohn-Sham states=           20
     kinetic-energy cutoff     =      35.0000  Ry
     charge density cutoff     =     200.0000  Ry
     convergence threshold     =      1.0E-06
     mixing beta               =       0.3000
     number of iterations used =           10  TF        mixing
     Exchange-correlation      =  SLA  PW   PBX  PBC ( 1  4  3  4 0 0)

     celldm(1)=   6.750826  celldm(2)=   0.000000  celldm(3)=   0.000000
     celldm(4)=   0.000000  celldm(5)=   0.000000  celldm(6)=   0.000000

     crystal axes: (cart. coord. in units of alat)
               a(1) = (   1.000000   0.000000   0.000000 )  
               a(2) = (   0.000000   1.000000   0.000000 )  
               a(3) = (   0.000000   0.000000   1.000000 )  

     reciprocal axes: (cart. coord. in units 2 pi/alat)
               b(1) = (  1.000000  0.000000  0.000000 )  
               b(2) = (  0.000000  1.000000  0.000000 )  
               b(3) = (  0.000000  0.000000  1.000000 )  


     PseudoPot. # 1 for  C read from file:
     /home/ben/espresso/pp/C.pbe-n-kjpaw_psl.1.0.0.UPF
     MD5 check sum: 151efd6a948e5eaef53e53bb29d01b27
     Pseudo is Projector augmented-wave + core cor, Zval =  4.0
     Generated using "atomic" code by A. Dal Corso  v.5.1
     Shape of augmentation charge: PSQ
     Using radial grid of 1073 points,  4 beta functions with: 
                l(1) =   0
                l(2) =   0
                l(3) =   1
                l(4) =   1
     Q(r) pseudized with 0 coefficients 


     atomic species   valence    mass     pseudopotential
        C              4.00    12.00000      C( 1.00)

     24 Sym. Ops. (no inversion) found



   Cartesian axes

     site n.     atom                  positions (alat units)
         1           C   tau(   1) = (   0.0000000   0.0000000   0.0000000  )
         2           C   tau(   2) = (   0.5000000   0.5000000   0.0000000  )
         3           C   tau(   3) = (   0.5000000   0.0000000   0.5000000  )
         4           C   tau(   4) = (   0.0000000   0.5000000   0.5000000  )
         5           C   tau(   5) = (   0.2500000   0.2500000   0.2500000  )
         6           C   tau(   6) = (   0.7500000   0.7500000   0.2500000  )
         7           C   tau(   7) = (   0.2500000   0.7500000   0.7500000  )
         8           C   tau(   8) = (   0.7500000   0.2500000   0.7500000  )

     number of k points=     4  Marzari-Vanderbilt smearing, width (Ry)=  0.0200
                       cart. coord. in units 2pi/alat
        k(    1) = (   0.1250000   0.1250000   0.1250000), wk =   0.2500000
        k(    2) = (   0.1250000   0.1250000   0.3750000), wk =   0.7500000
        k(    3) = (   0.1250000   0.3750000   0.3750000), wk =   0.7500000
        k(    4) = (   0.3750000   0.3750000   0.3750000), wk =   0.2500000

     Dense  grid:    14771 G-vectors     FFT dimensions: (  32,  32,  32)

     Smooth grid:     8601 G-vectors     FFT dimensions: (  25,  25,  25)

     Estimated max dynamical RAM per process >       3.80Mb

     Estimated total allocated dynamical RAM >      15.20Mb

     Check: negative/imaginary core charge=   -0.000073    0.000000

     Initial potential from superposition of free atoms

     starting charge   31.99967, renormalised to   32.00000
     Starting wfc are   32 randomized atomic wfcs
     Checking if some PAW data can be deallocated... 

     total cpu time spent up to now is        0.6 secs

     per-process dynamical memory:    16.4 Mb

     Self-consistent Calculation

     iteration #  1     ecut=    35.00 Ry     beta=0.30
     Davidson diagonalization with overlap
     ethr =  1.00E-02,  avg # of iterations =  2.2

     total cpu time spent up to now is        0.9 secs

     total energy              =    -147.55032637 Ry
     Harris-Foulkes estimate   =    -147.63145863 Ry
     estimated scf accuracy    <       0.46523678 Ry

     iteration #  2     ecut=    35.00 Ry     beta=0.30
     Davidson diagonalization with overlap
     ethr =  1.45E-03,  avg # of iterations =  1.0

     total cpu time spent up to now is        1.1 secs

     total energy              =    -147.42521203 Ry
     Harris-Foulkes estimate   =    -147.55331910 Ry
     estimated scf accuracy    <       0.27432748 Ry

     iteration #  3     ecut=    35.00 Ry     beta=0.30
     Davidson diagonalization with overlap
     ethr =  8.57E-04,  avg # of iterations =  3.2

     total cpu time spent up to now is        1.4 secs

     total energy              =    -147.45231943 Ry
     Harris-Foulkes estimate   =    -147.44918754 Ry
     estimated scf accuracy    <       0.00293763 Ry

     iteration #  4     ecut=    35.00 Ry     beta=0.30
     Davidson diagonalization with overlap
     ethr =  9.18E-06,  avg # of iterations =  8.2

     total cpu time spent up to now is        1.8 secs

     total energy              =    -147.45339324 Ry
     Harris-Foulkes estimate   =    -147.45314594 Ry
     estimated scf accuracy    <       0.00019539 Ry

     iteration #  5     ecut=    35.00 Ry     beta=0.30
     Davidson diagonalization with overlap
     ethr =  6.11E-07,  avg # of iterations =  2.0

     total cpu time spent up to now is        2.0 secs

     total energy              =    -147.45339240 Ry
     Harris-Foulkes estimate   =    -147.45343419 Ry
     estimated scf accuracy    <       0.00000792 Ry

     iteration #  6     ecut=    35.00 Ry     beta=0.30
     Davidson diagonalization with overlap
     ethr =  2.47E-08,  avg # of iterations =  2.2

     total cpu time spent up to now is        2.3 secs

     total energy              =    -147.45339897 Ry
     Harris-Foulkes estimate   =    -147.45339606 Ry
     estimated scf accuracy    <       0.00000558 Ry

     iteration #  7     ecut=    35.00 Ry     beta=0.30
     Davidson diagonalization with overlap
     ethr =  1.74E-08,  avg # of iterations =  2.0

     total cpu time spent up to now is        2.9 secs

     End of self-consistent calculation

          k = 0.1250 0.1250 0.1250 (  1084 PWs)   bands (ev):

    -7.7182  -1.1577  -1.1577  -1.1577   2.6201   2.6201   2.6201   5.9613
     5.9613   5.9613   7.3741   7.3741   7.3741  10.8673  12.6311  12.6311
    18.2510  18.2510  18.2510  19.7244

          k = 0.1250 0.1250 0.3750 (  1075 PWs)   bands (ev):

    -6.5794  -4.3477  -0.4236  -0.4236   2.1284   2.1284   4.8942   4.8942
     5.7729   6.9540   6.9540   8.0699   8.2003   8.4412  10.4158  11.2507
    18.4488  19.1109  20.8026  20.8027

          k = 0.1250 0.3750 0.3750 (  1077 PWs)   bands (ev):

    -5.4613  -3.3006  -3.3006  -1.4571   1.7179   3.4530   3.4530   5.5313
     5.5546   7.0159   7.0159   8.9240   9.0879   9.2103   9.2103  11.4488
    20.1199  21.2370  21.2370  21.3919

          k = 0.3750 0.3750 0.3750 (  1058 PWs)   bands (ev):

    -4.3818  -2.4537  -2.4537  -2.4537   0.7589   0.7589   0.7589   2.6307
     9.1396   9.1396   9.1396   9.7663   9.7663   9.7663  10.7575  10.7575
    20.8881  20.8881  20.8881  21.6572

     the Fermi energy is    14.5855 ev

!    total energy              =    -147.45340049 Ry
     Harris-Foulkes estimate   =    -147.45339973 Ry
     estimated scf accuracy    <       0.00000004 Ry

     total all-electron energy =      -609.566182 Ry

     The total energy is the sum of the following terms:

     one-electron contribution =      33.68348574 Ry
     hartree contribution      =       7.77486315 Ry
     xc contribution           =     -37.47114041 Ry
     ewald contribution        =    -102.13715906 Ry
     one-center paw contrib.   =     -49.30344992 Ry
     smearing contrib. (-TS)   =       0.00000000 Ry

     convergence has been achieved in   7 iterations

     Forces acting on atoms (Ry/au):

     atom    1 type  1   force =     0.00000000    0.00000000    0.00000000
     atom    2 type  1   force =     0.00000000    0.00000000    0.00000000
     atom    3 type  1   force =     0.00000000    0.00000000    0.00000000
     atom    4 type  1   force =     0.00000000    0.00000000    0.00000000
     atom    5 type  1   force =    -0.00000011   -0.00000011   -0.00000011
     atom    6 type  1   force =     0.00000011    0.00000011   -0.00000011
     atom    7 type  1   force =    -0.00000011    0.00000011    0.00000011
     atom    8 type  1   force =     0.00000011   -0.00000011    0.00000011

     Total force =     0.000000     Total SCF correction =     0.000012
     SCF correction compared to forces is large: reduce conv_thr to get better values


     entering subroutine stress ...

          total   stress  (Ry/bohr**3)                   (kbar)     P=  -47.66
  -0.00032402   0.00000000   0.00000000        -47.66      0.00      0.00
   0.00000000  -0.00032402   0.00000000          0.00    -47.66      0.00
   0.00000000   0.00000000  -0.00032402          0.00      0.00    -47.66


     Writing output data file template.save

     init_run     :      0.31s CPU      0.32s WALL (       1 calls)
     electrons    :      2.21s CPU      2.27s WALL (       1 calls)
     forces       :      0.27s CPU      0.27s WALL (       1 calls)
     stress       :      0.33s CPU      0.34s WALL (       1 calls)

     Called by init_run:
     wfcinit      :      0.05s CPU      0.05s WALL (       1 calls)
     potinit      :      0.14s CPU      0.14s WALL (       1 calls)

     Called by electrons:
     c_bands      :      0.82s CPU      0.84s WALL (       7 calls)
     sum_band     :      0.16s CPU      0.18s WALL (       7 calls)
     v_of_rho     :      0.08s CPU      0.09s WALL (       8 calls)
     newd         :      0.04s CPU      0.05s WALL (       8 calls)
     PAW_pot      :      1.22s CPU      1.23s WALL (       8 calls)
     mix_rho      :      0.01s CPU      0.01s WALL (       7 calls)

     Called by c_bands:
     init_us_2    :      0.02s CPU      0.02s WALL (      68 calls)
     cegterg      :      0.79s CPU      0.81s WALL (      28 calls)

     Called by sum_band:
     sum_band:bec :      0.00s CPU      0.00s WALL (      28 calls)
     addusdens    :      0.04s CPU      0.04s WALL (       7 calls)

     Called by *egterg:
     h_psi        :      0.57s CPU      0.58s WALL (     116 calls)
     s_psi        :      0.04s CPU      0.04s WALL (     116 calls)
     g_psi        :      0.00s CPU      0.00s WALL (      84 calls)
     cdiaghg      :      0.13s CPU      0.14s WALL (     112 calls)

     Called by h_psi:
     h_psi:pot    :      0.57s CPU      0.57s WALL (     116 calls)
     h_psi:calbec :      0.05s CPU      0.04s WALL (     116 calls)
     vloc_psi     :      0.48s CPU      0.49s WALL (     116 calls)
     add_vuspsi   :      0.04s CPU      0.04s WALL (     116 calls)

     General routines
     calbec       :      0.10s CPU      0.09s WALL (     164 calls)
     fft          :      0.06s CPU      0.08s WALL (     149 calls)
     ffts         :      0.00s CPU      0.00s WALL (      15 calls)
     fftw         :      0.52s CPU      0.53s WALL (    3810 calls)
     interpolate  :      0.01s CPU      0.01s WALL (      15 calls)
     davcio       :      0.00s CPU      0.00s WALL (       4 calls)

     Parallel routines
     fft_scatter  :      0.16s CPU      0.16s WALL (    3974 calls)

     PWSCF        :     3.54s CPU         3.73s WALL


   This run was terminated on:  12:47:57   9Jun2017            

=------------------------------------------------------------------------------=
   JOB DONE.
=------------------------------------------------------------------------------=
